# vtk DataFile Version 3.0
#This file was generated by the deal.II library on 2023/12/20 at 14:25:15
ASCII
DATASET UNSTRUCTURED_GRID

POINTS 11100 double
0.947431 0.952877 0
0.974185 0.9375 0
0.976604 0.96217 0
0.976604 0.0378298 0
0.974185 0.0625 0
0.94669 0.0470431 0
0.126948 0.95463 0
0.129352 0.925795 0
0.151554 0.9375 0
0.750273 0.954056 0
0.724816 0.954765 0
0.737079 0.928034 0
0.0602439 0.977017 0
0.0372704 0.97911 0
0.0454145 0.953679 0
0.780573 0.0508963 0
0.759721 0.0378044 0
0.784497 0.0237198 0
0.366229 0.0376178 0
0.345197 0.050384 0
0.341168 0.0238164 0
0.134319 0.0237103 0
0.130301 0.0501338 0
0.110327 0.0372222 0
0.301336 0.954736 0
0.302734 0.925834 0
0.32476 0.9375 0
0.0454145 0.953679 0
0.0685045 0.958381 0
0.0602439 0.977017 0
0.787876 0.978045 0
0.7625 0.978349 0
0.778176 0.951411 0
0.7625 0.978349 0
0.750273 0.954056 0
0.778176 0.951411 0
0.625 1 0
0.608533 0.975812 0
0.6375 0.978349 0
0.540597 0.0375288 0
0.519615 0.05 0
0.515782 0.0237607 0
0.301552 0.0471389 0
0.287448 0.021926 0
0.3125 0.0216506 0
0.8375 0.978349 0
0.8125 0.978349 0
0.82351 0.95352 0
0.519615 0.95 0
0.53993 0.962773 0
0.515782 0.976541 0
0.173846 0.953537 0
0.187233 0.977981 0
0.1625 0.978349 0
0.1625 0.0216506 0
0.187222 0.0220145 0
0.173751 0.0464267 0
0.463165 0.0223739 0
0.4875 0.0216506 0
0.476027 0.0465476 0
0.475832 0.953538 0
0.4875 0.978349 0
0.4625 0.978349 0
0.6375 0.0216506 0
0.6625 0.0216506 0
0.649634 0.0464414 0
0.301552 0.0471389 0
0.277313 0.0415931 0
0.287448 0.021926 0
0.759721 0.0378044 0
0.762036 0.0169188 0
0.784497 0.0237198 0
0.586058 0.0370109 0
0.609771 0.0235545 0
0.606218 0.05 0
0.95 0 0
0.935062 0.0235943 0
0.925 0 0
0.925 1 0
0.935714 0.975547 0
0.95 1 0
0.648923 0.953953 0
0.627712 0.937581 0
0.648554 0.926436 0
0.341168 0.0238164 0
0.3625 0.0169441 0
0.366229 0.0376178 0
0.976604 0.96217 0
0.959782 0.977511 0
0.947431 0.952877 0
0.94669 0.0470431 0
0.959693 0.0224798 0
0.976604 0.0378298 0
0.110327 0.0372222 0
0.111352 0.0167195 0
0.134319 0.0237103 0
0.690049 0.0238036 0
0.714299 0.03753 0
0.69282 0.05 0
0.724816 0.954765 0
0.710045 0.934331 0
0.737079 0.928034 0
0.45 1 0
0.434588 0.975739 0
0.4625 0.978349 0
0.515782 0.0237607 0
0.5375 0.0168558 0
0.540597 0.0375288 0
0.280982 0.937771 0
0.302734 0.925834 0
0.301336 0.954736 0
0.151554 0.9375 0
0.15047 0.960577 0
0.126948 0.95463 0
0.435479 0.0238835 0
0.433013 0.05 0
0.411996 0.0371844 0
0.107888 0.937658 0
0.129352 0.925795 0
0.126948 0.95463 0
0.978349 0.9125 0
0.974185 0.9375 0
0.950894 0.927635 0
0.950895 0.0723649 0
0.974185 0.0625 0
0.978349 0.0875 0
0.978349 0.9125 0
0.950894 0.927635 0
0.953882 0.901714 0
0.953884 0.098287 0
0.950895 0.0723649 0
0.978349 0.0875 0
0.214509 0.0238382 0
0.236783 0.0378619 0
0.216506 0.05 0
0.216506 0.95 0
0.237912 0.962193 0
0.214509 0.976162 0
0.737079 0.928034 0
0.760105 0.933459 0
0.750273 0.954056 0
0.931884 0.337147 0
0.955353 0.348918 0
0.932323 0.361531 0
0.8375 0.978349 0
0.864319 0.975933 0
0.85 1 0
0.950894 0.927635 0
0.974185 0.9375 0
0.947431 0.952877 0
0.94669 0.0470431 0
0.974185 0.0625 0
0.950895 0.0723649 0
0.259101 0.0753733 0
0.255067 0.05 0
0.282751 0.0647398 0
0.53993 0.962773 0
0.537801 0.983782 0
0.515782 0.976541 0
0.6 1 0
0.608533 0.975812 0
0.625 1 0
0.05 0 0
0.0406712 0.0230641 0
0.025 0 0
0.955906 0.248944 0
0.932022 0.262054 0
0.932314 0.237046 0
0.977647 0.212324 0
0.953697 0.199956 0
0.97727 0.187598 0
0.82351 0.95352 0
0.847215 0.958937 0
0.8375 0.978349 0
0.959693 0.0224798 0
0.935062 0.0235943 0
0.95 0 0
0.95 1 0
0.935714 0.975547 0
0.959782 0.977511 0
0.237912 0.962193 0
0.259469 0.949603 0
0.26099 0.976166 0
0.32476 0.9375 0
0.326971 0.962849 0
0.301336 0.954736 0
0.931898 0.212268 0
0.954913 0.224596 0
0.932314 0.237046 0
0.173846 0.953537 0
0.197458 0.958918 0
0.187233 0.977981 0
0.187222 0.0220145 0
0.197369 0.0409559 0
0.173751 0.0464267 0
0.953084 0.875684 0
0.953882 0.901714 0
0.931337 0.888035 0
0.95313 0.39942 0
0.931709 0.386944 0
0.954768 0.373386 0
0.931337 0.111965 0
0.953884 0.098287 0
0.953084 0.124316 0
1 0.95 0
0.974185 0.9375 0
1 0.925 0
1 0.075 0
0.974185 0.0625 0
1 0.05 0
0.887386 0.961607 0
0.907528 0.95 0
0.909648 0.974859 0
1 0.9 0
0.977108 0.888216 0
1 0.875 0
1 0.875 0
0.977108 0.888216 0
0.976268 0.862635 0
1 0.875 0
0.976268 0.862635 0
1 0.85 0
0.953201 0.8 0
0.95364 0.774465 0
0.97702 0.7875 0
1 0.725 0
0.975639 0.712213 0
1 0.7 0
1 0.7 0
0.975639 0.712213 0
0.976243 0.687437 0
1 0.7 0
0.976243 0.687437 0
1 0.675 0
1 0.575 0
0.976168 0.562479 0
1 0.55 0
0.953186 0.549996 0
0.953242 0.524999 0
0.976992 0.5375 0
0.953261 0.5 0
0.953265 0.475 0
0.97702 0.4875 0
0.953261 0.45 0
0.953207 0.425 0
0.976992 0.4375 0
1 0.425 0
0.976268 0.412403 0
1 0.4 0
0.976268 0.412403 0
0.97697 0.386657 0
1 0.4 0
1 0.4 0
0.97697 0.386657 0
1 0.375 0
0.977514 0.31238 0
0.977611 0.336987 0
0.953363 0.324857 0
1 0.15 0
0.976352 0.137393 0
1 0.125 0
0.976352 0.137393 0
0.977122 0.111788 0
1 0.125 0
1 0.125 0
0.977122 0.111788 0
1 0.1 0
0.953627 0.599932 0
0.976772 0.587463 0
0.977572 0.612389 0
0.932016 0.612367 0
0.955276 0.624734 0
0.93221 0.637293 0
0.388299 0.0226625 0
0.411996 0.0371844 0
0.389301 0.0496095 0
0.389499 0.950441 0
0.411223 0.962188 0
0.388438 0.977577 0
0.95364 0.774465 0
0.931324 0.762138 0
0.953431 0.749344 0
0.425 1 0
0.434588 0.975739 0
0.45 1 0
0.648554 0.926436 0
0.665566 0.938722 0
0.648923 0.953953 0
0.476027 0.0465476 0
0.452469 0.041061 0
0.463165 0.0223739 0
0.4625 0.978349 0
0.451976 0.958777 0
0.475832 0.953538 0
0.608533 0.975812 0
0.625719 0.959042 0
0.6375 0.978349 0
0.784497 0.0237198 0
0.80411 0.042098 0
0.780573 0.0508963 0
0.953224 0.850129 0
0.953592 0.825022 0
0.977019 0.8375 0
0.977741 0.262022 0
0.977364 0.287173 0
0.953869 0.274156 0
0.932314 0.237046 0
0.954913 0.224596 0
0.955906 0.248944 0
0.953264 0.574976 0
0.976772 0.587463 0
0.953627 0.599932 0
0.7375 0.978349 0
0.750273 0.954056 0
0.7625 0.978349 0
0.7375 0.978349 0
0.724816 0.954765 0
0.750273 0.954056 0
1 0.775 0
0.976357 0.761987 0
1 0.75 0
1 0.825 0
0.976099 0.8125 0
1 0.8 0
1 0.525 0
0.976752 0.5125 0
1 0.5 0
1 0.475 0
0.976756 0.4625 0
1 0.45 0
0.85 1 0
0.864319 0.975933 0
0.875 1 0
0.586058 0.0370109 0
0.587291 0.0159177 0
0.609771 0.0235545 0
0.6625 0.0216506 0
0.673235 0.0408791 0
0.649634 0.0464414 0
0.690049 0.0238036 0
0.7125 0.0167185 0
0.714299 0.03753 0
0.93221 0.637293 0
0.955276 0.624734 0
0.955128 0.649696 0
0.736909 0.022669 0
0.736539 0.0496846 0
0.714299 0.03753 0
0.976636 0.73694 0
0.953369 0.72452 0
0.975639 0.712213 0
0.282751 0.0647398 0
0.255067 0.05 0
0.277313 0.0415931 0
0.975 0 0
0.959693 0.0224798 0
0.95 0 0
0.95 1 0
0.959782 0.977511 0
0.975 1 0
0.931463 0.187621 0
0.93169 0.162623 0
0.956025 0.175723 0
0.955128 0.649696 0
0.931457 0.662434 0
0.93221 0.637293 0
0.931498 0.287179 0
0.95506 0.299479 0
0.931629 0.312326 0
0.259746 0.0241606 0
0.255067 0.05 0
0.236783 0.0378619 0
0.086688 0.0496108 0
0.0646454 0.0377429 0
0.0871154 0.0226648 0
0.953869 0.274156 0
0.932022 0.262054 0
0.955906 0.248944 0
0.649634 0.0464414 0
0.626134 0.0408152 0
0.6375 0.0216506 0
0.562857 0.950723 0
0.584567 0.9625 0
0.562562 0.977979 0
0.0406712 0.0230641 0
0.0183013 0.0183013 0
0.025 0 0
0.952921 0.674954 0
0.955128 0.649696 0
0.977798 0.662456 0
0.953363 0.324857 0
0.95506 0.299479 0
0.977514 0.31238 0
0.977798 0.162544 0
0.956025 0.175723 0
0.95295 0.15 0
0.932323 0.361531 0
0.955353 0.348918 0
0.954768 0.373386 0
0.389301 0.0496095 0
0.366229 0.0376178 0
0.388299 0.0226625 0
0.4875 0.0216506 0
0.49951 0.0406587 0
0.476027 0.0465476 0
0.475832 0.953538 0
0.499499 0.959501 0
0.4875 0.978349 0
0.562648 0.0222222 0
0.586058 0.0370109 0
0.562917 0.05 0
0.953431 0.749344 0
0.953369 0.72452 0
0.976636 0.73694 0
0.173751 0.0464267 0
0.150113 0.0403959 0
0.1625 0.0216506 0
0.1625 0.978349 0
0.15047 0.960577 0
0.173846 0.953537 0
0.411996 0.0371844 0
0.412155 0.0167461 0
0.435479 0.0238835 0
0.562917 0.05 0
0.540597 0.0375288 0
0.562648 0.0222222 0
0.953431 0.749344 0
0.931324 0.762138 0
0.931211 0.736667 0
0.953869 0.274156 0
0.977364 0.287173 0
0.95506 0.299479 0
0.562562 0.977979 0
0.53993 0.962773 0
0.562857 0.950723 0
0.931337 0.888035 0
0.953882 0.901714 0
0.930275 0.913355 0
0.954768 0.373386 0
0.931709 0.386944 0
0.932323 0.361531 0
0.930275 0.0866453 0
0.953884 0.098287 0
0.931337 0.111965 0
0.0871154 0.0226648 0
0.110327 0.0372222 0
0.086688 0.0496108 0
0.953869 0.274156 0
0.955906 0.248944 0
0.977741 0.262022 0
0.8125 0.978349 0
0.80061 0.959643 0
0.82351 0.95352 0
0.97702 0.7875 0
0.976099 0.8125 0
0.953201 0.8 0
0.97702 0.4875 0
0.976752 0.5125 0
0.953261 0.5 0
0.976992 0.4375 0
0.976756 0.4625 0
0.953261 0.45 0
0.953242 0.524999 0
0.976752 0.5125 0
0.976992 0.5375 0
0.953265 0.475 0
0.976756 0.4625 0
0.97702 0.4875 0
0.95364 0.774465 0
0.976357 0.761987 0
0.97702 0.7875 0
0.956025 0.175723 0
0.93169 0.162623 0
0.95295 0.15 0
0.952921 0.674954 0
0.931457 0.662434 0
0.955128 0.649696 0
0.931629 0.312326 0
0.95506 0.299479 0
0.953363 0.324857 0
1 0.925 0
0.974185 0.9375 0
0.978349 0.9125 0
0.976604 0.96217 0
0.974185 0.9375 0
1 0.95 0
1 0.05 0
0.974185 0.0625 0
0.976604 0.0378298 0
0.978349 0.0875 0
0.974185 0.0625 0
1 0.075 0
0.759721 0.0378044 0
0.736539 0.0496846 0
0.736909 0.022669 0
0.0454145 0.953679 0
0.0372704 0.97911 0
0.0211693 0.962394 0
1 0.675 0
0.976243 0.687437 0
0.977798 0.662456 0
0.977798 0.662456 0
0.976243 0.687437 0
0.952921 0.674954 0
1 0.55 0
0.976168 0.562479 0
0.976992 0.5375 0
0.976992 0.5375 0
0.976168 0.562479 0
0.953186 0.549996 0
1 0.85 0
0.976268 0.862635 0
0.977019 0.8375 0
0.977019 0.8375 0
0.976268 0.862635 0
0.953224 0.850129 0
1 0.375 0
0.97697 0.386657 0
0.97748 0.361601 0
1 0.1 0
0.977122 0.111788 0
0.978349 0.0875 0
0.978349 0.9125 0
0.977108 0.888216 0
1 0.9 0
0.976636 0.73694 0
0.975639 0.712213 0
1 0.725 0
0.953207 0.425 0
0.976268 0.412403 0
0.976992 0.4375 0
0.976992 0.4375 0
0.976268 0.412403 0
1 0.425 0
0.95295 0.15 0
0.976352 0.137393 0
0.977798 0.162544 0
0.977798 0.162544 0
0.976352 0.137393 0
[...]
POINT_DATA 11100
SCALARS solution double 1
LOOKUP_TABLE default
1.35334 1.36117 1.38044 0.97901 0.978945 0.949952 0.967209 0.939122 0.954678 1.22509 1.21021 1.1964 0.980789 0.981001 0.956161 0.784878 0.762685 0.786116 0.370711 0.352167 0.343663 0.138754 0.14259 0.11927 1.01007 0.983125 1.0016 0.956161 0.963003 0.980789 1.26725 1.25183 1.2403 1.25183 1.22509 1.2403 1.19123 1.16198 1.17965 0.544119 0.524962 0.517707 0.308405 0.290079 0.314929 1.29881 1.28291 1.27076 1.09451 1.11563 1.11605 0.974881 1.00167 0.996989 0.166128 0.190589 0.183112 0.46517 0.489348 0.481128 1.07708 1.10449 1.09339 0.639119 0.664052 0.653871 0.308405 0.28354 0.290079 0.762685 0.763141 0.786116 0.589404 0.611617 0.611107 0.95 0.936365 0.925 1.37264 1.36181 1.3895 1.16558 1.14013 1.1426 0.343663 0.364175 0.370711 1.38044 1.37974 1.35334 0.949952 0.960899 0.97901 0.11927 0.114754 0.138754 0.691685 0.717299 0.697323 1.21021 1.185 1.1964 1.10765 1.07913 1.09339 0.517707 0.538805 0.544119 0.987499 0.983125 1.01007 0.954678 0.977204 0.967209 0.437741 0.439008 0.416141 0.947426 0.939122 0.967209 1.34657 1.36117 1.33766 0.956847 0.978945 0.985996 1.34657 1.33766 1.32146 0.963095 0.956847 0.985996 0.217849 0.242715 0.225703 0.981229 0.998562 1.00615 1.1964 1.21498 1.22509 0.996672 1.02273 1.00529 1.29881 1.31437 1.32348 1.33766 1.36117 1.35334 0.949952 0.978945 0.956847 0.273842 0.263398 0.293948 1.11563 1.13301 1.11605 1.1782 1.16198 1.19123 0.05 0.0483572 0.025 0.994152 0.974452 0.968291 1.00671 0.980604 1.00117 1.27076 1.29032 1.29881 0.960899 0.936365 0.95 1.3895 1.36181 1.37974 0.998562 0.992399 1.01835 1.0016 1.02625 1.01007 0.962003 0.987287 0.968291 0.974881 0.985321 1.00167 0.190589 0.204831 0.183112 1.30273 1.32146 1.29576 1.03829 1.01376 1.03048 0.942675 0.963095 0.966102 1.38836 1.36117 1.37087 1.00604 0.978945 1.00346 1.31886 1.32384 1.34365 1.35363 1.32883 1.33662 1.33662 1.32883 1.31072 1.33662 1.31072 1.31986 1.25156 1.23515 1.26145 1.24012 1.21297 1.22506 1.22506 1.21297 1.19847 1.22506 1.19847 1.21033 1.15518 1.12826 1.14343 1.10211 1.09041 1.11725 1.07916 1.06835 1.09517 1.05798 1.04803 1.07482 1.09136 1.06462 1.08226 1.06462 1.05597 1.08226 1.08226 1.05597 1.0736 1.03239 1.03999 1.01314 1.01666 0.991206 1.01268 0.991206 0.988054 1.01268 1.01268 0.988054 1.00913 1.1294 1.14197 1.15626 1.11857 1.14475 1.13321 0.390516 0.416141 0.395593 1.03763 1.05712 1.0623 1.23515 1.21014 1.2188 1.09738 1.07913 1.10765 1.1426 1.16245 1.16558 0.481128 0.456997 0.46517 1.09339 1.07118 1.07708 1.16198 1.15704 1.17965 0.786116 0.807438 0.784878 1.28527 1.26854 1.29434 1.01865 1.02501 0.998802 0.968291 0.987287 0.994152 1.11541 1.14197 1.1294 1.23673 1.22509 1.25183 1.23673 1.21021 1.22509 1.27115 1.24457 1.25548 1.30336 1.27707 1.28711 1.13215 1.10576 1.1213 1.11088 1.08455 1.1009 1.32348 1.31437 1.33964 0.589404 0.588474 0.611617 0.664052 0.676754 0.653871 0.691685 0.713604 0.717299 1.13321 1.14475 1.15908 0.738455 0.740828 0.717299 1.22902 1.20305 1.21297 0.293948 0.263398 0.28354 0.975 0.960899 0.95 1.3895 1.37974 1.40656 0.95622 0.951511 0.977952 1.15908 1.14757 1.13321 0.980932 1.00709 0.98855 0.26287 0.263398 0.242715 0.101503 0.0764682 0.09242 0.998802 0.974452 0.994152 0.653871 0.629844 0.639119 1.11669 1.13803 1.14013 0.0483572 0.0258819 0.025 1.17228 1.15908 1.18495 1.01314 1.00709 1.03239 0.99693 0.977952 0.970199 1.00529 1.02273 1.03048 0.395593 0.370711 0.390516 0.489348 0.503673 0.481128 1.07708 1.09332 1.10449 0.564386 0.589404 0.567993 1.2188 1.20305 1.22902 0.183112 0.158716 0.166128 0.996989 0.977204 0.974881 0.416141 0.413698 0.437741 0.567993 0.544119 0.564386 1.2188 1.21014 1.19357 0.998802 1.02501 1.00709 1.14013 1.11563 1.11669 1.29576 1.32146 1.31298 1.03048 1.01376 1.00529 0.938093 0.963095 0.942675 0.09242 0.11927 0.101503 0.998802 0.994152 1.01865 1.28291 1.26088 1.27076 1.26145 1.27707 1.25156 1.09517 1.10576 1.07916 1.07482 1.08455 1.05798 1.09041 1.10576 1.11725 1.06835 1.08455 1.09517 1.23515 1.24457 1.26145 0.977952 0.951511 0.970199 1.17228 1.14757 1.15908 0.98855 1.00709 1.01314 1.37087 1.36117 1.34657 1.38044 1.36117 1.38836 1.00346 0.978945 0.97901 0.985996 0.978945 1.00604 0.762685 0.740828 0.738455 0.956161 0.981001 0.96326 1.21033 1.19847 1.18495 1.18495 1.19847 1.17228 1.14343 1.12826 1.11725 1.11725 1.12826 1.10211 1.31986 1.31072 1.29434 1.29434 1.31072 1.28527 1.0736 1.05597 1.04785 1.00913 0.988054 0.985996 1.34657 1.32883 1.35363 1.22902 1.21297 1.24012 1.04803 1.06462 1.07482 1.07482 1.06462 1.09136 0.970199 0.991206 0.99693 0.99693 0.991206 1.01666 0.217849 0.239594 0.242715 0.998562 1.0189 1.00615 1.15518 1.14197 1.12826 0.98154 0.963003 0.956766 0.980932 0.998802 1.00709 1.03829 1.03048 1.05597 0.966102 0.963095 0.988054 1.32883 1.32146 1.30273 1.00117 0.980604 0.977952 1.23515 1.2188 1.24457 1.29434 1.26854 1.27707 1.25548 1.24457 1.22902 1.26145 1.24457 1.27115 1.28711 1.27707 1.26145 1.29434 1.27707 1.30336 1.1213 1.10576 1.09517 1.11725 1.10576 1.13215 1.09517 1.08455 1.11088 1.1009 1.08455 1.07482 1.0623 1.04065 1.03763 1.12826 1.14197 1.11541 0.352167 0.330432 0.343663 1.15626 1.14475 1.1294 1.00671 0.987287 0.980604 1.07913 1.07118 1.09339 1.23673 1.22162 1.21021 0.314929 0.330432 0.308405 0.925 0.936365 0.912304 1.34365 1.36181 1.37264 0.975 0.982654 0.960899 1.37974 1.398 1.40656 1.1294 1.14475 1.11857 0.611107 0.591532 0.589404 1.17233 1.16245 1.14764 1.34365 1.33495 1.31886 0.308405 0.293948 0.28354 0.932587 0.923651 0.949952 1.21021 1.22162 1.19667 0.589404 0.591532 0.567993 0.980604 0.987287 0.962003 1.01314 1.02273 0.996672 0.28354 0.263398 0.26287 1.21021 1.19667 1.185 1.16558 1.15704 1.14013 1.01835 1.0189 0.998562 0.242715 0.239594 0.26287 1.2403 1.26088 1.26725 0.977952 0.980604 0.95622 0.854832 0.84361 0.866772 1.29881 1.29032 1.31437 1.11669 1.11563 1.0943 1.0943 1.11563 1.09451 1.03999 1.02273 1.01314 0.138754 0.158716 0.14259 0.524962 0.503673 0.517707 1.11605 1.09332 1.09451 0.390516 0.413698 0.416141 1.05712 1.07705 1.0623 1.00615 0.985321 0.981229 0.225703 0.204831 0.217849 0.866772 0.877592 0.854832 0.611617 0.629844 0.611107 0.992399 1.00721 1.01835 0.437741 0.456997 0.439008 0.697323 0.676754 0.691685 1.32384 1.34219 1.34365 0.956766 0.968174 0.98154 0.980789 0.963003 0.98154 1.15908 1.17051 1.18495 1.00709 1.02501 1.03239 0.99693 1.00117 0.977952 0.395593 0.376673 0.370711 1.32146 1.33766 1.31298 0.938093 0.956847 0.963095 1.14764 1.16456 1.17233 0.717299 0.713604 0.738455 1.19667 1.17233 1.185 1.20779 1.18361 1.19667 1.07916 1.10576 1.09041 1.05798 1.08455 1.06835 1.26854 1.26058 1.24337 0.988054 0.963095 0.985996 1.05597 1.03048 1.04785 1.34657 1.32146 1.32883 0.980932 0.974452 0.998802 1.30054 1.30605 1.32384 1.05038 1.02501 1.04357 1.19595 1.17051 1.18194 1.02599 1.00117 1.02109 1.19667 1.22162 1.20779 1.16832 1.14197 1.15518 1.15626 1.14197 1.16832 1.24457 1.2188 1.22902 0.994152 1.01272 1.01865 1.01272 0.987287 1.00671 1.185 1.16936 1.1964 1.27707 1.26854 1.25156 1.28527 1.26058 1.26854 1.25156 1.26854 1.24337 1.03239 1.02501 1.05038 1.04357 1.02501 1.01865 1.18194 1.17051 1.15626 1.18495 1.17051 1.19595 1.00671 1.00117 1.02599 1.02109 1.00117 0.99693 1.33766 1.32868 1.31298 0.938093 0.932587 0.956847 0.0764682 0.0673524 0.09242 1.19667 1.18361 1.17233 1.03763 1.04065 1.01735 1.01735 1.04065 1.02071 1.33766 1.35334 1.32868 0.932587 0.949952 0.956847 1.04065 1.0429 1.02071 0.400981 0.382624 0.376673 1.14764 1.16245 1.1426 0.400981 0.376673 0.395593 0.376673 0.382624 0.358539 0.83919 0.830317 0.813982 0.42139 0.438592 0.445969 0.404967 0.429726 0.414349 0.175 0.190835 0.2 0.1 0.117069 0.125 0.0455628 0.0483572 0.0694093 0.15 0.141566 0.166164 0.0694093 0.0687377 0.0455628 0.414281 0.438592 0.42139 0.166164 0.141566 0.160268 0.0906264 0.0687377 0.0694093 0.0927142 0.0687377 0.0906264 0.0906264 0.113241 0.0927142 0.42139 0.429726 0.404967 0.25717 0.281674 0.265129 0.25717 0.275188 0.281674 0.125 0.141566 0.15 0.215561 0.208433 0.232749 0.432407 0.438592 0.414281 0.160268 0.184256 0.166164 0.445969 0.429726 0.42139 0.125 0.117069 0.141566 0.2 0.190835 0.215561 0.166164 0.190835 0.175 0.400638 0.403877 0.380468 0.232749 0.240329 0.215561 0.384571 0.408433 0.390044 0.190835 0.208433 0.215561 0.400638 0.423725 0.403877 0.384571 0.403877 0.408433 0.380468 0.403877 0.384571 0.25717 0.240329 0.232749 0.265129 0.240329 0.25717 0.432407 0.414281 0.408433 0.275188 0.29934 0.281674 0.622973 0.626925 0.603366 0.622973 0.603366 0.599738 0.323601 0.306243 0.29934 0.46478 0.487464 0.46702 0.398736 0.420104 0.421275 0.355531 0.330865 0.347949 0.29934 0.306243 0.281674 0.637997 0.638948 0.660107 0.4 0.389445 0.414349 0.560472 0.556584 0.579915 0.522894 0.529146 0.504856 0.584139 0.560472 0.579915 0.485876 0.487464 0.46478 0.511876 0.519919 0.495239 1.28244 1.30054 1.27722 0.442317 0.444047 0.421275 0.400638 0.421275 0.423725 0.52899 0.55094 0.550852 0.508277 0.487464 0.485876 1.27722 1.25876 1.28244 0.599738 0.603366 0.579915 1.25343 1.25876 1.27722 0.529602 0.55094 0.52899 0.579915 0.603366 0.584139 1.2349 1.25876 1.25343 0.536912 0.556584 0.560472 0.347949 0.330865 0.323601 0.560472 0.541449 0.536912 0.554117 0.574649 0.552031 0.666077 0.646328 0.642927 0.414349 0.389445 0.404967 0.661453 0.66364 0.684114 0.323601 0.330865 0.306243 0.408433 0.414281 0.390044 0.364552 0.380234 0.389445 0.622973 0.646328 0.626925 0.541449 0.517663 0.536912 0.552031 0.574649 0.573116 1.20591 1.18716 1.21101 0.56533 0.571141 0.546983 0.580582 0.600306 0.577141 0.0927142 0.117069 0.1 0.485876 0.507292 0.508277 0.905447 0.88543 0.908655 1.13082 1.13497 1.15424 1.13961 1.16336 1.15856 1.09226 1.11591 1.11144 0.577141 0.600306 0.597438 0.882467 0.88543 0.905447 0.604087 0.627696 0.623598 1.25343 1.22964 1.2349 0.616617 0.638948 0.637997 0.608769 0.627696 0.604087 0.608769 0.63266 0.627696 0.550852 0.529418 0.52899 0.421275 0.420104 0.442317 0.398736 0.421275 0.400638 0.608769 0.614337 0.63266 1.22481 1.22964 1.24842 0.862296 0.88543 0.882467 0.882467 0.859591 0.862296 0.536397 0.519919 0.511876 0.646328 0.669789 0.650581 0.642927 0.646328 0.622973 0.546983 0.571141 0.553492 0.184256 0.190835 0.166164 1.21101 1.22964 1.20591 0.843845 0.818973 0.829227 0.529418 0.507292 0.52899 1.17771 1.1822 1.20123 1.11144 1.11591 1.13497 0.46478 0.444047 0.442317 0.508277 0.507292 0.529418 0.552031 0.55094 0.529602 0.640771 0.66364 0.661453 1.20591 1.1822 1.18716 1.13082 1.11144 1.13497 0.711212 0.735549 0.728894 0.718426 0.735549 0.711212 1.15424 1.13497 1.15856 0.573116 0.55094 0.552031 0.815132 0.804299 0.790161 1.16336 1.1822 1.15856 0.744072 0.72936 0.719211 0.339671 0.330865 0.355531 0.546983 0.529146 0.522894 0.829227 0.804299 0.815132 0.56533 0.546983 0.541449 0.790161 0.804299 0.779373 0.661154 0.663196 0.640388 0.507388 0.507292 0.485413 0.686644 0.689982 0.70977 1.05793 1.03784 1.06098 0.779216 0.754286 0.76894 0.833983 0.835065 0.856154 0.839261 0.859591 0.836825 0.836468 0.859185 0.838787 1.05793 1.03501 1.03784 0.790161 0.779373 0.76519 0.577141 0.574649 0.554117 0.829227 0.818973 0.804299 0.666077 0.669789 0.646328 0.666664 0.689982 0.686644 0.833983 0.812723 0.835065 0.850567 0.869661 0.846138 0.790104 0.768486 0.790526 0.638475 0.645126 0.662671 0.846138 0.869661 0.865655 0.859591 0.857542 0.836825 0.638475 0.662671 0.656624 1.15856 1.13497 1.13961 0.88543 0.889029 0.908655 0.614337 0.590261 0.596466 0.626925 0.646328 0.650581 0.825052 0.816593 0.800354 0.862296 0.859591 0.839261 0.608769 0.590261 0.614337 1.07822 1.08094 1.10111 1.08419 1.08796 1.10748 0.513473 0.517663 0.493981 1.2349 1.22964 1.21101 0.536912 0.517663 0.513473 0.835065 0.857542 0.856154 0.637919 0.616085 0.637997 0.616457 0.616085 0.637919 1.24842 1.22964 1.25343 0.807948 0.826896 0.803297 0.662671 0.645126 0.669523 0.724932 0.746928 0.725641 1.20591 1.22964 1.22481 0.768421 0.768486 0.790104 0.790526 0.811963 0.790104 1.03784 1.03501 1.01478 0.604087 0.600306 0.580582 0.803297 0.826896 0.822694 1.18716 1.1822 1.16336 0.751626 0.740157 0.76513 0.900907 0.880144 0.902862 0.597438 0.574649 0.577141 1.15856 1.1822 1.17771 0.833983 0.811963 0.812723 0.640366 0.62993 0.615408 1.04121 1.01794 1.02166 0.790161 0.76519 0.776627 0.70977 0.689982 0.713402 0.596466 0.620772 0.614337 1.20123 1.1822 1.20591 0.733006 0.736917 0.756346 0.746617 0.768486 0.768421 0.640366 0.615408 0.626626 0.676626 0.665326 0.651627 1.10404 1.08094 1.08419 0.660107 0.638948 0.661453 0.414281 0.396855 0.390044 0.347949 0.372371 0.355531 1.06098 1.08094 1.05793 0.615408 0.601626 0.626626 0.638475 0.656624 0.63266 0.838787 0.859185 0.861778 0.908655 0.889029 0.912481 0.998263 0.978812 1.00234 0.76513 0.776627 0.751626 0.72938 0.749815 0.752384 0.485413 0.507292 0.485876 0.52899 0.507292 0.507388 0.73362 0.70889 0.725042 1.05428 1.05712 1.0345 0.974936 0.955351 0.978812 0.225 0.240329 0.25 1.07262 1.05106 1.05086 0.855372 0.833582 0.855431 0.659609 0.637997 0.660107 0.836825 0.857542 0.835065 0.640388 0.663196 0.642927 0.626626 0.601626 0.615322 1.10748 1.08796 1.11144 0.857542 0.878465 0.856154 0.865027 0.841779 0.861778 1.07311 1.05106 1.07262 1.09451 1.07311 1.07262 0.865655 0.889029 0.88543 1.05428 1.07913 1.05712 0.841197 0.816593 0.825052 0.46702 0.444047 0.46478 0.76513 0.754286 0.779216 0.76894 0.754286 0.744072 0.880144 0.878465 0.857542 0.800354 0.816593 0.792013 0.541449 0.522894 0.517663 0.974936 0.978812 0.998263 0.767753 0.783125 0.792604 0.916312 0.923567 0.940658 0.746617 0.746928 0.724932 0.769092 0.770498 0.747995 0.879804 0.878237 0.900628 0.760518 0.736917 0.741575 0.623598 0.600306 0.604087 0.865027 0.888362 0.868925 0.861778 0.841779 0.838787 0.113241 0.117069 0.0927142 0.560956 0.569353 0.544625 0.812723 0.811963 0.790526 0.801626 0.776627 0.790103 0.792604 0.783125 0.807899 0.825052 0.809345 0.83414 0.928978 0.918501 0.904035 0.902862 0.880144 0.882467 0.495239 0.519919 0.504127 0.614337 0.638475 0.63266 0.882467 0.880144 0.859591 0.951687 0.955351 0.974936 0.900907 0.878465 0.880144 0.833582 0.811901 0.811963 0.768421 0.746928 0.746617 0.754286 0.72936 0.744072 0.809345 0.818973 0.83414 1.05793 1.08094 1.07822 1.10111 1.08094 1.10404 0.792013 0.816593 0.808779 0.83414 0.818973 0.843845 0.857251 0.859185 0.836468 0.900628 0.878237 0.899415 0.904035 0.918501 0.89361 0.603555 0.620772 0.596466 0.869661 0.889029 0.865655 0.948044 0.972546 0.965035 0.868925 0.888362 0.892486 0.855431 0.833582 0.833983 0.601626 0.590361 0.615322 0.800354 0.809345 0.825052 0.755697 0.732404 0.752384 0.776627 0.76519 0.751626 0.690288 0.665326 0.676626 0.681432 0.659609 0.681504 0.84233 0.817463 0.832685 1.09706 1.10238 1.12088 0.679671 0.685815 0.661598 0.517663 0.498884 0.493981 0.703448 0.681432 0.703118 0.968925 0.948617 0.971639 0.773083 0.776072 0.796073 0.498884 0.504856 0.48063 0.916971 0.927285 0.902465 0.421275 0.444047 0.423725 0.747995 0.770498 0.749815 0.736188 0.732404 0.755697 0.876626 0.890057 0.865082 0.681504 0.659609 0.660107 0.752908 0.750211 0.729854 0.811963 0.811901 0.790104 0.899117 0.923567 0.916312 0.642927 0.663196 0.666077 1.05428 1.0345 1.03239 0.713402 0.733006 0.70977 0.857251 0.878237 0.879804 0.725641 0.746928 0.747995 0.880144 0.857542 0.859591 0.752384 0.732404 0.72938 0.640366 0.654822 0.62993 0.25 0.240329 0.265129 0.215561 0.240329 0.225 0.553492 0.571141 0.577887 0.818228 0.836317 0.842401 0.655676 0.63175 0.650581 0.865027 0.845439 0.841779 0.955992 0.9314 0.9398 0.773083 0.752908 0.776072 0.718426 0.742927 0.735549 0.661598 0.685815 0.668333 0.752384 0.749815 0.772635 0.955992 0.972546 0.948044 0.619637 0.626805 0.602326 0.689344 0.669789 0.666077 1.16336 1.16864 1.18716 0.833863 0.833582 0.855372 1.03239 1.0345 1.01178 0.585547 0.569353 0.560956 1.08419 1.08094 1.06098 0.681432 0.681504 0.703118 1.00234 1.02166 0.998263 0.840055 0.865032 0.851627 0.854026 0.865032 0.840055 0.854026 0.829086 0.843584 0.829086 0.818697 0.843584 0.650581 0.63175 0.626925 0.727124 0.749815 0.72938 0.756346 0.736917 0.760518 1.17965 1.19363 1.20463 0.615322 0.590361 0.604803 1.17965 1.16558 1.19363 0.873466 0.868925 0.892486 0.682182 0.681432 0.703448 0.868925 0.845439 0.865027 0.812328 0.836317 0.818228 1.15645 1.13875 1.16302 0.541449 0.546983 0.522894 0.916117 0.921066 0.897236 0.788396 0.812328 0.794101 1.02166 1.02594 1.04513 0.897236 0.902605 0.878644 0.882289 0.892085 0.867204 0.878644 0.902605 0.884449 1.03784 1.01794 1.04121 0.783388 0.759747 0.779087 0.70373 0.685815 0.679671 0.948044 0.9314 0.955992 0.93527 0.958832 0.939814 0.954677 0.958832 0.93527 0.84233 0.832685 0.857482 0.684114 0.66364 0.686644 0.726372 0.742927 0.718426 0.88487 0.888362 0.865027 0.713402 0.736917 0.733006 0.767457 0.784335 0.759925 0.773083 0.750211 0.752908 0.951687 0.974936 0.971639 0.921066 0.902605 0.897236 0.693957 0.686919 0.669523 0.661154 0.638717 0.659958 0.94588 0.92761 0.951694 0.773083 0.796073 0.793513 0.715186 0.690217 0.704438 0.890057 0.879097 0.865082 0.715186 0.701627 0.690217 0.807104 0.812328 0.788396 0.881005 0.90554 0.889114 1.02968 1.00765 1.02918 1.02918 1.00765 1.00742 0.922563 0.939122 0.947426 0.7065 0.727124 0.72938 0.865082 0.851627 0.876626 0.851627 0.865032 0.876626 0.840055 0.829086 0.854026 0.602326 0.626805 0.610168 0.832012 0.849131 0.856496 0.971639 0.948617 0.951687 0.790161 0.776627 0.801626 0.790103 0.776627 0.76513 0.946144 0.966798 0.944272 0.812328 0.818228 0.794101 0.946144 0.948617 0.968925 0.850567 0.831767 0.855646 0.940013 0.926626 0.951626 0.968925 0.966798 0.946144 1.30762 1.28291 1.29881 1.23673 1.25183 1.26158 0.832685 0.848368 0.857482 0.704576 0.727124 0.7065 1.18716 1.16864 1.19259 1.08419 1.10748 1.10404 0.807899 0.783125 0.798981 0.749667 0.725042 0.741672 1.02918 1.05106 1.02968 0.589293 0.571141 0.56533 0.668333 0.685815 0.692744 0.857482 0.848368 0.873086 0.698148 0.70373 0.679671 0.958258 0.943397 0.968298 0.892085 0.877529 0.867204 0.752908 0.756346 0.776072 0.873086 0.848368 0.864485 0.722043 0.70373 0.698148 0.823666 0.848368 0.832685 0.793513 0.796073 0.81633 0.839875 0.848368 0.823666 0.479309 0.495239 0.504127 0.716996 0.736188 0.740724 0.796073 0.776072 0.799337 0.922563 0.931933 0.907106 1.07262 1.05086 1.07267 0.703118 0.681504 0.703589 0.922563 0.947426 0.931933 0.703118 0.703589 0.725 0.704856 0.703589 0.682399 0.703589 0.681504 0.682399 0.668333 0.651319 0.643963 0.661598 0.643963 0.637434 0.619637 0.602326 0.595362 0.661598 0.668333 0.643963 0.643963 0.626805 0.619637 0.725845 0.703589 0.704856 0.823666 0.807899 0.798981 0.679671 0.661598 0.655676 0.643963 0.619637 0.637434 0.704856 0.684114 0.706918 0.661598 0.637434 0.655676 0.725845 0.704856 0.727464 0.704856 0.682399 0.684114 0.704856 0.706918 0.727464 0.725 0.703589 0.725845 0.706918 0.70977 0.729854 0.725845 0.727464 0.74826 0.619637 0.595362 0.61333 0.832685 0.817463 0.807899 0.706918 0.729854 0.727464 0.679671 0.655676 0.674325 0.725 0.725845 0.747061 0.725845 0.74826 0.747061 0.619637 0.61333 0.637434 0.729854 0.750211 0.727464 0.727464 0.750211 0.74826 0.823666 0.832685 0.807899 0.725 0.747061 0.746617 0.882289 0.867204 0.857482 0.823666 0.798981 0.815287 0.698148 0.679671 0.674325 0.725 0.746617 0.724932 0.712717 0.736188 0.716996 0.882289 0.857482 0.873086 0.839875 0.823666 0.815287 0.822035 0.802565 0.79872 0.7755 0.772635 0.795576 0.81633 0.796073 0.81917 0.698148 0.674325 0.693348 0.703118 0.725 0.724932 0.693348 0.712717 0.716996 0.897818 0.882289 0.873086 0.637919 0.637997 0.659609 0.79872 0.7755 0.795576 0.818626 0.822035 0.79872 0.703448 0.703118 0.724932 0.727846 0.710082 0.70373 0.839875 0.815287 0.832012 0.698148 0.693348 0.716996 0.81633 0.81917 0.839261 0.889114 0.897818 0.873086 1.29202 1.28291 1.30762 1.20463 1.19363 1.21838 1.26158 1.25183 1.27664 0.814179 0.812723 0.791663 0.659958 0.637919 0.659609 0.892486 0.911778 0.916117 0.560956 0.544625 0.536397 0.818626 0.79872 0.795576 0.966487 0.945773 0.944007 0.703448 0.724932 0.725641 0.981229 0.963353 0.956979 0.727846 0.70373 0.722043 0.722043 0.698148 0.716996 0.864485 0.848368 0.839875 0.839875 0.832012 0.856496 0.889114 0.873086 0.864485 0.836825 0.835065 0.814179 0.81633 