# vtk DataFile Version 3.0
#This file was generated by the deal.II library on 2023/11/29 at 12:41:17
ASCII
DATASET UNSTRUCTURED_GRID

POINTS 2940 double
0.830646 0.300847 0
0.85359 0.14641 0
1 0.300847 0.169354
0.687462 0.314556 0.312541
1 0.14641 0.14641
0.85359 0 0.14641
0.830577 0 0.300184
0.687462 0.314556 0.312541
1 0.14641 0.14641
0.85359 0.14641 0
0.85359 0 0.14641
0.687462 0.314556 0.312541
1 0.14641 0.14641
1 0.300847 0.169354
0.85359 0.14641 0
0.687462 0.314556 0.312541
1 0.188245 0.316391
1 0.14641 0.14641
0.830577 0 0.300184
0.687462 0.314556 0.312541
0.683861 0.1881 0
0.85359 0 0.14641
0.85359 0.14641 0
0.687462 0.314556 0.312541
0.68421 0 0.186538
0.85359 0 0.14641
0.683861 0.1881 0
0.687462 0.314556 0.312541
0.830577 0 0.300184
0.85359 0 0.14641
0.68421 0 0.186538
0.687462 0.314556 0.312541
0.683861 0.1881 0
0.85359 0.14641 0
0.830646 0.300847 0
0.687462 0.314556 0.312541
1 0.188245 0.316391
1 0.300847 0.169354
1 0.14641 0.14641
0.687462 0.314556 0.312541
0.599523 0.664209 1
0.459879 0.4686 0.751959
0.685262 0.687548 0.688537
0.787887 0.499151 0.775328
0 0.335791 0.400477
0.248578 0.555292 0.526452
0.312325 0.314157 0.312325
0.219869 0.501918 0.219869
0.5 0.5 0.5
0.248578 0.555292 0.526452
0.314105 0.6879 0.314105
0.219869 0.501918 0.219869
0.5 0.5 0.5
0.312325 0.314157 0.312325
0.248578 0.555292 0.526452
0.219869 0.501918 0.219869
0.314105 0.6879 0.314105
0.521218 0.550316 0.248783
0.5 0.5 0.5
0.219869 0.501918 0.219869
0.673205 0.469548 1
0.459879 0.4686 0.751959
0.599523 0.664209 1
0.787887 0.499151 0.775328
0.312325 0.314157 0.312325
0.5 0.5 0.5
0.521218 0.550316 0.248783
0.219869 0.501918 0.219869
0 0.335791 0.400477
0.312325 0.314157 0.312325
0.248578 0.555292 0.526452
0.208975 0.209449 0.46932
0.312325 0.314157 0.312325
0.521218 0.550316 0.248783
0.400477 0.335791 0
0.219869 0.501918 0.219869
0.400477 0.335791 0
0.521218 0.550316 0.248783
0.312325 0.314157 0.312325
0.500053 0.211234 0.225626
0 0.335791 0.400477
0 0.5 0.480385
0.248578 0.555292 0.526452
0.219869 0.501918 0.219869
0.541877 0.31025 0
0.687462 0.314556 0.312541
0.521218 0.550316 0.248783
0.500053 0.211234 0.225626
0 0.335791 0.400477
0.248578 0.555292 0.526452
0 0.31025 0.541877
0.208975 0.209449 0.46932
0.673205 0.469548 1
0.519615 0.5 1
0.599523 0.664209 1
0.459879 0.4686 0.751959
0.599523 0.664209 1
0.685262 0.687548 0.688537
0.459879 0.4686 0.751959
0.536672 0.795188 0.794235
0.830646 0.300847 0
0.687462 0.314556 0.312541
1 0.300847 0.169354
0.771957 0.5171 0.228043
0.541877 0.31025 0
0.521218 0.550316 0.248783
0.400477 0.335791 0
0.500053 0.211234 0.225626
0 0.335791 0.400477
0 0.530452 0.326795
0 0.5 0.480385
0.219869 0.501918 0.219869
0.326795 0.530452 0
0.400477 0.335791 0
0.480385 0.5 0
0.219869 0.501918 0.219869
0.541877 0.31025 0
0.687462 0.314556 0.312541
0.670581 0.39644 0
0.521218 0.550316 0.248783
0.400477 0.335791 0
0.521218 0.550316 0.248783
0.480385 0.5 0
0.219869 0.501918 0.219869
0.687462 0.314556 0.312541
1 0.310303 0.458202
0.749092 0.500869 0.532942
0.779692 0.220893 0.498778
0.521218 0.550316 0.248783
0.499871 0.250906 0.467101
0.312325 0.314157 0.312325
0.500053 0.211234 0.225626
0 0.31025 0.541877
0.248578 0.555292 0.526452
0.300029 0.300002 0.641951
0.208975 0.209449 0.46932
0.673205 0.469548 1
0.599523 0.664209 1
0.727242 0.609232 1
0.787887 0.499151 0.775328
0 0.335791 0.400477
0 0.5 0.480385
0 0.31025 0.541877
0.248578 0.555292 0.526452
0.664209 1 0.599523
0.488751 0.751732 0.483007
0.685262 0.687548 0.688537
0.536672 0.795188 0.794235
0.687462 0.314556 0.312541
0.499871 0.250906 0.467101
0.521218 0.550316 0.248783
0.500053 0.211234 0.225626
0.689697 0 0.541798
0.499871 0.250906 0.467101
0.686038 0.31164 0.685747
0.779692 0.220893 0.498778
1 0.310303 0.458202
1 0.396449 0.329432
0.687462 0.314556 0.312541
0.749092 0.500869 0.532942
0 0.679566 0.38953
0.314105 0.6879 0.314105
0 0.838031 0.30619
0.246189 0.785223 0.511614
0.599523 0.664209 1
0.685262 0.687548 0.688537
0.727242 0.609232 1
0.787887 0.499151 0.775328
0.459879 0.4686 0.751959
0.749092 0.500869 0.532942
0.685262 0.687548 0.688537
0.787887 0.499151 0.775328
0 0.603108 0.672771
0.248578 0.555292 0.526452
0.246189 0.785223 0.511614
0.197659 0.782504 0.802531
0.458123 0.68975 1
0.599523 0.664209 1
0.459879 0.4686 0.751959
0.536672 0.795188 0.794235
0.600202 0 0.675519
0.686038 0.31164 0.685747
0.689697 0 0.541798
0.499871 0.250906 0.467101
0.672771 0.603108 0
0.502673 0.776286 0.219932
0.699949 0.699922 0.35725
0.806408 0.78192 0.193592
0.312325 0.314157 0.312325
0.300029 0.300002 0.641951
0.5 0.5 0.5
0.248578 0.555292 0.526452
0.521218 0.550316 0.248783
0.749092 0.500869 0.532942
0.687462 0.314556 0.312541
0.771957 0.5171 0.228043
0 0.838031 0.30619
0.246189 0.785223 0.511614
0.314105 0.6879 0.314105
0.22313 0.81326 0.183284
0.469548 1 0.673205
0.488751 0.751732 0.483007
0.664209 1 0.599523
0.536672 0.795188 0.794235
1 0.188245 0.316391
0.687462 0.314556 0.312541
0.830577 0 0.300184
0.779692 0.220893 0.498778
0 0.68975 0.541877
0 0.603108 0.672771
0.246189 0.785223 0.511614
0.197659 0.782504 0.802531
0.672771 0.603108 0
0.521218 0.550316 0.248783
0.699949 0.699922 0.35725
0.502673 0.776286 0.219932
0.541877 0.31025 0
0.480385 0.5 0
0.400477 0.335791 0
0.521218 0.550316 0.248783
0 0.603108 0.672771
0.229688 0.525883 0.770385
0.248578 0.555292 0.526452
0.197659 0.782504 0.802531
0.300029 0.300002 0.641951
0.482779 0.229778 0.774439
0.459879 0.4686 0.751959
0.195369 0.222589 0.808762
0.324466 0.399791 1
0.459879 0.4686 0.751959
0.482779 0.229778 0.774439
0.195369 0.222589 0.808762
0.686038 0.31164 0.685747
0.749092 0.500869 0.532942
0.459879 0.4686 0.751959
0.787887 0.499151 0.775328
0 0.39644 0.670581
0.300029 0.300002 0.641951
0 0.31025 0.541877
0.248578 0.555292 0.526452
0.672771 0.603108 0
0.699949 0.699922 0.35725
0.771957 0.5171 0.228043
0.806408 0.78192 0.193592
0.5 0.5 0.5
0.312325 0.314157 0.312325
0.521218 0.550316 0.248783
0.499871 0.250906 0.467101
0.685262 0.687548 0.688537
0.488751 0.751732 0.483007
0.664209 1 0.599523
0.790157 0.790635 0.530838
0.5 0.5 0.5
0.687462 0.314556 0.312541
0.521218 0.550316 0.248783
0.749092 0.500869 0.532942
0.687462 0.314556 0.312541
0.749092 0.500869 0.532942
1 0.396449 0.329432
0.771957 0.5171 0.228043
0.672771 0.603108 0
0.699949 0.699922 0.35725
0.521218 0.550316 0.248783
0.771957 0.5171 0.228043
0.400477 0.335791 0
0.326795 0.530452 0
0.272758 0.390768 0
0.219869 0.501918 0.219869
0 0.390768 0.272758
0 0.530452 0.326795
0 0.335791 0.400477
0.219869 0.501918 0.219869
0 0.5 0.826795
0.158968 0.305505 1
0 0.300847 0.830646
0.229688 0.525883 0.770385
0.248578 0.555292 0.526452
0.370715 0.703931 0.699539
0.246189 0.785223 0.511614
0.197659 0.782504 0.802531
0.600202 0 0.675519
0.686038 0.31164 0.685747
0.499871 0.250906 0.467101
0.482779 0.229778 0.774439
0 0.838031 0.30619
0.314105 0.6879 0.314105
0 0.679566 0.38953
0.22313 0.81326 0.183284
0.685262 0.687548 0.688537
0.370715 0.703931 0.699539
0.5 0.5 0.5
0.459879 0.4686 0.751959
0.458123 0.68975 1
0.459879 0.4686 0.751959
0.370715 0.703931 0.699539
0.536672 0.795188 0.794235
0.5 0.5 0.5
0.300029 0.300002 0.641951
0.312325 0.314157 0.312325
0.499871 0.250906 0.467101
0.400477 0.335791 0
0.272758 0.390768 0
0.312325 0.314157 0.312325
0.219869 0.501918 0.219869
0 0.390768 0.272758
0 0.335791 0.400477
0.312325 0.314157 0.312325
0.219869 0.501918 0.219869
0.5 0.5 0.5
0.685262 0.687548 0.688537
0.459879 0.4686 0.751959
0.749092 0.500869 0.532942
0.248578 0.555292 0.526452
0.229688 0.525883 0.770385
0.370715 0.703931 0.699539
0.197659 0.782504 0.802531
0 0.838031 0.30619
0.1881 1 0.316139
0.246189 0.785223 0.511614
0.22313 0.81326 0.183284
0.158968 0.305505 1
0 0.5 0.826795
0.172261 0.501635 1
0.229688 0.525883 0.770385
0.459879 0.4686 0.751959
0.499871 0.250906 0.467101
0.686038 0.31164 0.685747
0.482779 0.229778 0.774439
0 0.68975 0.541877
0.246189 0.785223 0.511614
0 0.817766 0.685866
0.197659 0.782504 0.802531
0.699949 0.699922 0.35725
0.749092 0.500869 0.532942
0.521218 0.550316 0.248783
0.771957 0.5171 0.228043
0 0.68975 0.541877
0 0.603108 0.672771
0.248578 0.555292 0.526452
0.246189 0.785223 0.511614
0.830577 0 0.300184
0.687462 0.314556 0.312541
0.678373 0 0.387667
0.779692 0.220893 0.498778
0.685262 0.687548 0.688537
0.5 0.5 0.5
0.370715 0.703931 0.699539
0.488751 0.751732 0.483007
0.300029 0.300002 0.641951
0.248578 0.555292 0.526452
0.312325 0.314157 0.312325
0.208975 0.209449 0.46932
0.158968 0.305505 1
0 0.300847 0.830646
0.229688 0.525883 0.770385
0.195369 0.222589 0.808762
0.68421 0 0.186538
0.678373 0 0.387667
0.830577 0 0.300184
0.687462 0.314556 0.312541
0.5 0.5 0.5
0.521218 0.550316 0.248783
0.687462 0.314556 0.312541
0.499871 0.250906 0.467101
1 0.678539 0.612619
0.685262 0.687548 0.688537
0.749092 0.500869 0.532942
0.787887 0.499151 0.775328
0.749092 0.500869 0.532942
0.499871 0.250906 0.467101
0.687462 0.314556 0.312541
0.779692 0.220893 0.498778
0.685262 0.687548 0.688537
0.488751 0.751732 0.483007
0.699949 0.699922 0.35725
0.749092 0.500869 0.532942
0.469548 1 0.673205
0.664209 1 0.599523
0.609232 1 0.727242
0.536672 0.795188 0.794235
0.826795 0.5 0
0.830646 0.300847 0
1 0.300847 0.169354
0.771957 0.5171 0.228043
0.685866 0.817766 0
0.502673 0.776286 0.219932
0.541877 0.68975 0
0.806408 0.78192 0.193592
0.683861 0.1881 0
0.68421 0 0.186538
0.687462 0.314556 0.312541
0.500053 0.211234 0.225626
0.610165 0.32061 1
0.459879 0.4686 0.751959
0.686038 0.31164 0.685747
0.482779 0.229778 0.774439
0.826795 0.5 0
1 0.300847 0.169354
1 0.5 0.173205
0.771957 0.5171 0.228043
0.686038 0.31164 0.685747
0.499871 0.250906 0.467101
0.749092 0.500869 0.532942
0.779692 0.220893 0.498778
0.541877 0.68975 0
0.502673 0.776286 0.219932
0.672771 0.603108 0
0.806408 0.78192 0.193592
1 0.678539 0.612619
0.685262 0.687548 0.688537
0.787887 0.499151 0.775328
0.815716 0.777201 0.815716
0.685262 0.687548 0.688537
0.5 0.5 0.5
0.488751 0.751732 0.483007
0.749092 0.500869 0.532942
0.670581 0.39644 0
0.521218 0.550316 0.248783
0.687462 0.314556 0.312541
[...]
POINT_DATA 2940
SCALARS solution double 1
LOOKUP_TABLE default
1.03935 0.939091 1.37169 1.30883 1.2353 1.01874 1.22329 1.30883 1.2353 0.939091 1.01874 1.30883 1.2353 1.37169 0.939091 1.30883 1.48859 1.2353 1.22329 1.30883 0.805446 1.01874 0.939091 1.30883 0.913444 1.01874 0.805446 1.30883 1.22329 1.01874 0.913444 1.30883 0.805446 0.939091 1.03935 1.30883 1.48859 1.37169 1.2353 1.30883 3.01089 2.25925 2.33868 2.4616 1.23679 1.77386 1.09445 1.1432 1.71524 1.77386 1.5613 1.1432 1.71524 1.09445 1.77386 1.1432 1.5613 1.39173 1.71524 1.1432 2.92305 2.25925 3.01089 2.4616 1.09445 1.71524 1.39173 1.1432 1.23679 1.09445 1.77386 1.34937 1.09445 1.39173 0.729332 1.1432 0.729332 1.39173 1.09445 0.962383 1.23679 1.58562 1.77386 1.1432 0.811263 1.30883 1.39173 0.962383 1.23679 1.77386 1.5718 1.34937 2.92305 2.9033 3.01089 2.25925 3.01089 2.33868 2.25925 2.63689 1.03935 1.30883 1.37169 1.48289 0.811263 1.39173 0.729332 0.962383 1.23679 1.32558 1.58562 1.1432 0.995758 0.729332 1.01889 1.1432 0.811263 1.30883 1.00837 1.39173 0.729332 1.39173 1.01889 1.1432 1.30883 1.79063 1.91122 1.68078 1.39173 1.48702 1.09445 0.962383 1.5718 1.77386 1.84079 1.34937 2.92305 3.01089 3.02367 2.4616 1.23679 1.58562 1.5718 1.77386 2.54144 1.98401 2.33868 2.63689 1.30883 1.48702 1.39173 0.962383 1.62805 1.48702 2.10028 1.68078 1.79063 1.63469 1.30883 1.91122 1.63257 1.5613 1.74084 2.02708 3.01089 2.33868 3.02367 2.4616 2.25925 1.91122 2.33868 2.4616 2.11844 1.77386 2.02708 2.59226 3.01464 3.01089 2.25925 2.63689 1.91569 2.10028 1.62805 1.48702 1.27989 1.67177 1.81514 1.79612 1.09445 1.84079 1.71524 1.77386 1.39173 1.91122 1.30883 1.48289 1.74084 2.02708 1.5613 1.59704 2.63132 1.98401 2.54144 2.63689 1.48859 1.30883 1.22329 1.68078 1.93218 2.11844 2.02708 2.59226 1.27989 1.39173 1.81514 1.67177 0.811263 1.01889 0.729332 1.39173 2.11844 2.31076 1.77386 2.59226 1.84079 2.20118 2.25925 2.22492 2.81617 2.25925 2.20118 2.22492 2.10028 1.91122 2.25925 2.4616 1.9436 1.84079 1.5718 1.77386 1.27989 1.81514 1.48289 1.79612 1.71524 1.09445 1.39173 1.48702 2.33868 1.98401 2.54144 2.24162 1.71524 1.30883 1.39173 1.91122 1.30883 1.91122 1.63469 1.48289 1.27989 1.81514 1.39173 1.48289 0.729332 0.995758 0.749166 1.1432 1.04591 1.32558 1.23679 1.1432 2.39415 2.74568 2.29557 2.31076 1.77386 2.31282 2.02708 2.59226 1.91569 2.10028 1.48702 2.20118 1.74084 1.5613 1.63257 1.59704 2.33868 2.31282 1.71524 2.25925 3.01464 2.25925 2.31282 2.63689 1.71524 1.84079 1.09445 1.48702 0.729332 0.749166 1.09445 1.1432 1.04591 1.23679 1.09445 1.1432 1.71524 2.33868 2.25925 1.91122 1.77386 2.31076 2.31282 2.59226 1.74084 2.03303 2.02708 1.59704 2.74568 2.39415 2.85384 2.31076 2.25925 1.48702 2.10028 2.20118 1.93218 2.02708 2.36987 2.59226 1.81514 1.91122 1.39173 1.48289 1.93218 2.11844 1.77386 2.02708 1.22329 1.30883 1.2648 1.68078 2.33868 1.71524 2.31282 1.98401 1.84079 1.77386 1.09445 1.34937 2.74568 2.29557 2.31076 2.22492 0.913444 1.2648 1.22329 1.30883 1.71524 1.39173 1.30883 1.48702 2.35705 2.33868 1.91122 2.4616 1.91122 1.48702 1.30883 1.68078 2.33868 1.98401 1.81514 1.91122 2.63132 2.54144 2.76612 2.63689 1.24623 1.03935 1.37169 1.48289 1.60646 1.67177 1.3423 1.79612 0.805446 0.913444 1.30883 0.962383 2.83136 2.25925 2.10028 2.20118 1.24623 1.37169 1.56686 1.48289 2.10028 1.48702 1.91122 1.68078 1.3423 1.67177 1.27989 1.79612 2.35705 2.33868 2.4616 2.73155 2.33868 1.71524 1.98401 1.91122 1.00837 1.39173 1.30883 1.48289 1.63469 1.37169 1.30883 1.48289 1.00837 1.30883 1.03935 1.48289 2.75839 2.80596 2.361 2.20118 1.48666 1.84079 1.83843 1.48702 2.13324 1.81514 1.84903 1.91122 2.10028 2.25925 1.71524 1.48702 1.91569 1.48702 1.83843 2.20118 1.84903 1.63469 1.91122 1.48289 1.2648 1.48702 1.30883 0.962383 2.0352 1.62805 2.10028 1.68078 2.89898 2.10028 2.83136 2.4616 1.84079 1.83843 1.48702 2.20118 1.84079 1.48702 2.25925 2.20118 1.60646 1.3423 1.27989 1.79612 2.10028 1.68078 2.21703 2.39005 0.805446 1.30883 0.811263 0.962383 1.2095 1.26125 1.5613 1.1432 1.34836 1.5613 1.63257 1.1432 3.01464 3.01089 2.9033 2.25925 1.2648 1.30883 0.913444 0.962383 2.21703 2.10028 2.09451 1.68078 1.79063 1.30883 1.48859 1.68078 2.54144 2.63132 2.38527 1.98401 1.71524 1.39173 1.81514 1.91122 1.84903 1.91122 1.81514 1.48289 1.93218 2.36987 2.11844 2.59226 2.80596 2.361 2.20118 2.39005 2.48778 2.63132 2.31282 1.98401 2.92305 2.89898 2.83136 2.4616 1.00282 0.694825 0.551117 1.1432 1.10287 0.818817 1.34937 0.698974 1.71524 2.25925 2.10028 1.91122 1.81514 1.98401 1.71524 1.91122 1.9436 1.84079 1.77386 2.31076 2.26621 2.75839 2.361 2.20118 2.35889 2.54144 1.98401 2.24162 2.35705 1.91122 2.33868 2.24162 2.13324 1.81514 1.91122 2.24162 2.93556 2.31282 3.01464 2.25925 1.84079 1.48702 1.48666 1.34937 1.91569 2.0352 1.62805 2.10028 0.805446 1.03935 1.00837 1.30883 1.37169 1.48859 1.63469 1.30883 1.71524 1.30883 1.91122 1.48702 0.729332 0.962383 1.09445 0.698974 1.63257 1.77386 1.5613 2.02708 1.00837 0.811263 0.805446 1.30883 1.63469 1.48859 1.79063 1.30883 2.35705 2.4616 2.76736 2.73155 1.71524 1.91122 2.10028 1.48702 2.23379 2.08778 2.24162 1.79612 1.30883 1.48702 1.2648 1.68078 1.9436 1.5718 1.58562 1.77386 2.09451 2.10028 2.21703 2.39005 2.03598 2.15333 1.67177 1.79612 2.07723 1.5613 1.98401 2.02708 2.31282 2.25925 2.33868 2.63689 1.2095 1.5613 1.26125 1.59704 2.48778 1.98401 2.31282 2.02708 2.0143 1.74084 2.03303 2.02708 2.76612 2.54144 2.77664 2.33868 0.551117 0.872766 1.00282 1.1432 2.76612 2.33868 2.77664 2.73155 1.84903 1.63469 2.04206 1.91122 2.35889 1.98401 1.81514 2.24162 2.0352 2.21703 1.68078 2.39005 0.694825 0.551117 1.1432 0.698974 1.09445 1.48702 1.10287 0.962383 0.729332 0.459218 0.962383 0.698974 2.31282 2.59226 3.09365 2.63689 1.55237 1.90146 1.50121 1.67177 2.86879 2.59226 2.31282 2.63689 2.54144 2.33868 2.76612 2.63689 2.09451 1.91122 2.10028 2.4616 1.84079 1.71524 2.25925 1.48702 1.83843 1.91569 1.39448 1.48702 1.83843 2.23205 2.20118 2.22492 2.35705 2.13324 1.91122 2.24162 2.07723 1.98401 2.25903 2.02708 1.5613 1.39173 1.26125 1.67177 1.86596 1.82798 1.34937 2.22492 1.10287 1.34937 1.09445 0.698974 1.84079 1.34937 1.82798 2.22492 2.63132 2.31282 1.98401 2.63689 1.27989 1.3423 1.39173 1.67177 1.01889 0.811263 1.00837 1.39173 1.34836 1.63257 1.5613 1.59704 2.15333 1.81514 2.35889 1.98401 2.0143 1.63257 1.74084 2.02708 2.86879 3.09365 2.59226 2.63689 2.81617 2.80113 2.72413 2.20118 2.48778 2.62334 2.02708 2.59226 1.62805 1.2648 1.48702 1.68078 2.23379 2.24162 1.81514 1.79612 1.50934 1.24623 1.77741 1.48289 2.83136 2.10028 2.89898 2.39005 1.86596 1.34937 1.84079 2.22492 1.24623 1.56686 1.77741 1.48289 2.76612 2.63689 2.33868 2.73155 2.85384 2.56499 2.98465 2.31076 1.34836 1.63257 1.32558 1.1432 1.2095 0.995758 1.26125 1.1432 1.91569 2.0352 2.10028 2.39005 1.81514 1.67177 2.15333 1.79612 1.9436 2.31076 2.29557 2.22492 2.48778 2.02708 2.31282 2.59226 1.96748 1.90146 1.55237 1.67177 2.49816 2.08778 2.3783 2.24162 2.85384 2.39415 2.56499 2.31076 2.54144 2.77664 2.33868 2.24162 1.2095 1.1432 1.5613 1.59704 1.81514 2.24162 2.08778 1.79612 2.81617 2.20118 2.72413 2.22492 2.0352 1.68078 2.10028 2.39005 2.74568 2.31076 2.81617 2.22492 2.80596 2.20118 2.83136 2.39005 2.03303 2.30635 2.0143 2.02708 1.83843 2.20118 1.84079 2.22492 2.36987 2.02708 2.62334 2.59226 2.76612 3.02166 2.63689 2.73155 2.10028 1.91122 2.09451 1.68078 1.9436 1.84079 2.31076 2.22492 1.31253 1.35469 1.82798 1.34937 1.10287 1.48702 1.09445 1.34937 1.90146 1.50121 1.67177 1.59704 2.9033 2.92305 2.83136 2.25925 2.36987 2.30635 2.62334 2.02708 2.07723 1.98401 1.5613 1.67177 3.02367 2.33868 3.01089 2.73155 1.81514 1.98401 2.33868 2.24162 1.24623 1.77741 1.49118 1.50934 1.37169 1.24623 1.27825 1.03935 1.77741 1.24623 1.49118 1.56686 1.37169 1.24623 1.56686 1.27825 1.23679 1.04591 1.09445 0.698974 0.729332 1.09445 0.749166 0.698974 2.85384 2.98465 2.56499 2.88405 1.34836 1.74084 1.63257 1.59704 2.33868 2.63689 3.01089 2.73155 2.03598 1.67177 1.60646 1.79612 1.10287 1.48666 1.48702 1.34937 2.83136 2.20118 2.10028 2.39005 1.79063 2.04206 1.63469 1.91122 2.35889 1.81514 2.23379 2.24162 2.13324 2.08778 1.81514 2.24162 1.91569 1.62805 1.39448 1.48702 1.81839 2.0352 2.21703 1.68078 2.15333 1.81514 1.98401 1.67177 2.04206 2.13324 1.84903 1.91122 2.88405 2.56499 2.85384 2.39415 1.5613 1.1432 1.34836 1.59704 1.79063 2.09451 1.91122 1.68078 2.93556 2.31282 2.25925 2.31076 2.89898 2.10028 2.4616 2.39005 2.23205 2.72413 2.26621 2.20118 1.10287 0.585835 1.09445 0.962383 1.39448 1.48666 1.83843 1.48702 1.09445 1.34937 1.23679 0.698974 1.00282 0.872766 1.34836 1.1432 2.81617 2.25925 2.80113 2.20118 2.35705 2.24162 2.33868 2.73155 2.77664 2.33868 2.24162 2.73155 2.49816 2.23379 2.08778 2.24162 3.01464 2.31282 3.09365 2.63689 2.56616 2.09451 2.10028 2.4616 3.00939 3.12182 2.76736 2.4616 2.30635 2.36987 2.0143 2.02708 2.361 1.91569 2.20118 2.39005 2.80113 2.25925 2.83136 2.20118 2.03598 1.96748 1.60646 1.67177 2.15333 2.23379 2.35889 1.81514 2.13324 2.08778 1.84903 1.81514 1.9436 2.39415 2.29557 2.31076 2.72413 2.75839 2.26621 2.20118 1.5613 1.67177 1.26125 1.59704 2.48778 2.25903 1.98401 2.02708 3.01464 2.93556 3.09365 2.31282 2.74568 2.85384 2.81617 2.31076 1.96748 1.55237 1.60646 1.67177 2.35705 1.91122 2.36399 2.4616 2.33868 1.91122 1.81514 2.24162 2.33868 1.98401 2.31282 2.63689 3.02367 2.4616 2.33868 2.73155 1.84079 1.71524 1.77386 2.25925 2.23379 1.81514 2.15333 1.79612 2.23205 2.72413 2.20118 2.22492 2.48778 2.31282 2.86879 2.59226 1.5718 1.84079 1.86596 1.34937 2.07723 1.67177 1.5613 1.59704 1.82798 1.84079 1.48666 1.34937 2.10028 2.20118 1.91569 2.39005 2.48778 2.38527 2.63132 1.98401 1.2648 1.02298 1.48702 0.962383 2.80596 2.75839 2.83136 2.20118 1.57845 1.48859 1.22329 1.68078 1.10287 1.09445 0.585835 0.698974 2.86879 2.48778 2.63132 2.31282 1.83843 1.84079 1.82798 2.22492 2.38527 2.35889 2.54144 1.98401 2.76736 2.76338 3.00939 2.4616 2.43117 2.3783 2.49816 2.08778 1.86596 1.5718 1.9436 1.84079 1.63257 1.93218 1.77386 2.02708 1.35469 1.86596 1.82798 1.34937 3.12182 2.76736 2.4616 2.73155 1.48666 1.82798 1.83843 1.84079 1.50934 1.48289 1.77741 1.79612 2.85384 2.7749 2.39415 2.74568 2.7749 2.39415 2.74568 2.29557 1.71524 1.5613 1.77386 1.98401 2.63132 2.86879 2.31282 2.63689 1.09445 1.48702 1.84079 1.34937 1.04591 1.1432 1.09445 0.698974 1.09445 1.1432 0.749166 0.698974 2.0352 1.81839 1.57845 1.68078 2.56616 2.10028 2.09451 2.39005 3.09365 2.31282 2.93556 2.59226 1.50121 1.26125 1.67177 1.59704 2.35705 2.13324 2.04206 1.91122 1.27989 1.39173 1.00837 1.48289 1.62805 1.2648 1.39448 1.48702 2.56499 2.98465 2.31076 2.59226 2.35705 2.66955 2.24162 2.73155 2.15333 1.98401 2.07723 1.67177 1.9436 1.77386 2.11844 2.31076 3.14176 3.09365 3.28958 2.96243 3.02367 3.12182 2.4616 2.73155 2.89898 3.00939 2.76338 2.4616 2.31282 1.77386 1.71524 2.25925 1.35469 1.31253 1.82798 1.58745 1.03923 1.00282 0.872766 1.34836 2.31282 2.31076 2.93556 2.59226 1.5613 1.71524 1.39173 1.98401 1.79685 1.50121 1.55237 1.90146 1.2095 1.34836 1.1432 1.59704 2.48778 2.25903 2.38527 1.98401 2.08778 1.84903 1.81514 1.79612 2.69083 2.26621 2.23205 2.72413 1.09445 0.962383 0.585835 0.698974 1.04591 0.694825 1.1432 0.698974 0.551117 0.749166 1.1432 0.698974 1.96748 1.55237 1.85485 1.60646 2.23205 1.83843 1.82798 2.22492 2.72413 2.69083 2.26621 2.75839 3.02166 2.76612 2.77664 2.73155 1.90146 1.67177 2.07723 1.59704 2.03598 1.96748 1.85485 1.60646 2.66955 2.49816 2.3783 2.24162 2.56616 2.4616 2.10028 2.39005 1.84079 2.25925 1.77386 2.31076 1.35469 1.31253 0.818817 1.34937 0.860606 1.23679 1.34937 0.698974 1.71524 1.77386 2.31282 1.98401 2.26621 2.361 1.91569 2.20118 2.9033 2.93556 3.01464 2.25925 1.96748 1.79685 1.55237 1.90146 3.151 3.01089 2.63689 2.73155 1.63469 1.56686 1.37169 1.48289 1.00837 1.03935 1.24623 1.48289 2.03598 2.23379 2.15333 1.79612 1.57845 1.81839 1.48859 1.68078 1.86596 1.84079 1.9436 2.22492 3.00939 3.02367 3.12182 2.4616 0.551117 0.749166 0.872766 1.1432 1.04591 0.694825 1.00282 1.1432 0.610276 0.68483 0.805446 0.962383 1.10287 0.585835 0.818817 0.698974 2.08778 2.49816 2.43117 2.23379 2.56616 2.09451 2.21703 2.39005 0.872766 1.2095 1.34836 1.1432 2.80113 2.9033 2.83136 2.25925 2.77664 2.24162 2.66955 2.73155 1.81514 1.39173 1.71524 1.98401 1.84903 1.48289 1.81514 1.79612 0.459218 0.585835 0.962383 0.698974 2.77664 2.49816 2.66955 2.24162 0.805446 0.68483 0.913444 0.962383 2.04206 1.79063 2.09451 1.91122 0.818817 0.860606 1.34937 0.698974 1.35469 0.818817 0.860606 1.34937 3.02166 3.14176 2.96243 2.63689 0.69282 1.00282 0.694825 0.551117 2.75839 2.80596 2.73317 2.361 3.151 2.63689 3.02166 2.73155 1.77386 2.25925 2.31282 2.31076 2.38527 2.15333 2.35889 1.98401 1.10287 1.48666 1.39448 1.48702 1.31253 1.0583 1.35469 0.818817 2.71064 2.3783 2.66955 2.49816 1.82798 1.86596 1.35469 1.58745 1.3423 1.26125 1.39173 1.67177 2.73317 2.26621 2.75839 2.361 1.27989 1.01889 1.00837 1.39173 2.35705 2.36399 2.76736 2.4616 2.11844 1.9436 1.58562 1.77386 2.86879 3.28958 3.09365 2.96243 1.77386 1.98401 1.5613 2.02708 2.0352 1.91214 1.81839 2.21703 2.30635 2.41885 2.36987 2.62334 2.09451 2.36399 1.91122 2.4616 2.98465 2.93556 2.31076 2.59226 0.69282 1.00282 0.551117 0.872766 1.84903 1.77741 1.48289 1.79612 1.27989 1.48289 1.50934 1.79612 1.2095 1.03923 0.872766 1.34836 2.89898 2.4616 2.56616 2.39005 2.31282 1.98401 1.77386 2.02708 1.2648 0.913444 1.02298 0.962383 2.62334 2.48778 2.86879 2.59226 1.55237 1.50121 1.26125 1.67177 3.151 3.14176 3.02166 2.63689 1.5613 1.98401 1.39173 1.67177 2.93556 2.25925 2.81617 2.31076 1.02298 1.10287 1.48702 0.962383 2.0143 2.30635 2.41885 2.36987 1.81839 1.91214 2.0352 1.57845 2.56499 2.31076 2.11844 2.59226 2.03303 1.74084 2.0143 2.11246 2.15333 2.38527 2.07723 1.98401 1.22329 1.57845 1.5291 1.48859 1.39173 1.98401 1.81514 1.67177 2.11246 2.0143 2.03303 2.30635 1.57845 1.22329 1.2648 1.68078 2.89898 3.01311 2.76338 3.00939 2.96243 3.31716 3.14176 3.02166 0.610276 0.459218 0.585835 0.962383 0.860606 1.35469 1.0583 0.818817 2.66955 2.77664 2.71064 2.49816 1.5291 1.57845 1.81839 1.48859 2.0143 2.36987 1.93218 2.02708 1.90146 1.96748 2.07723 1.67177 1.81839 2.21703 2.09451 1.68078 0.68483 0.610276 0.585835 0.962383 3.151 3.02367 3.01089 2.73155 1.63257 1.93218 1.58562 1.77386 1.23679 0.860606 1.04591 0.698974 0.729332 0.749166 0.459218 0.698974 2.07723 2.38527 2.25903 1.98401 1.01889 1.3423 1.26125 1.39173 0.610276 0.729332 0.459218 0.962383 2.13324 2.3783 2.08778 2.24162 2.35889 2.23379 2.49816 2.24162 2.56616 2.89898 2.76338 2.4616 3.01464 3.09365 3.14176 2.63689 2.03598 2.15333 1.96748 1.67177 2.48778 2.62334 2.30635 2.02708 1.63257 2.0143 1.93218 2.02708 2.81617 2.93556 2.9033 2.25925 3.151 3.14176 3.31716 3.02166 1.83843 2.23205 2.26621 2.20118 1.31253 1.82798 1.48666 1.34937 1.35469 1.5718 1.86596 1.34937 2.63132 2.96243 2.86879 2.63689 0.805446 0.610276 0.6 0.68483 1.84903 1.77741 1.56686 1.48289 1.27989 1.24623 1.50934 1.48289 2.85384 2.98465 2.93556 2.31076 0.913444 0.805446 0.6 0.68483 2.11844 2.56499 2.39415 2.31076 1.34836 1.49777 1.59398 1.59704 2.35705 2.04206 2.36399 1.91122 1.2648 1.02298 1.39448 1.48702 2.25903 2.30635 2.03303 2.02708 1.01889 1.27989 1.3423 1.39173 1.86596 2.29748 2.27163 2.22492 2.09451 2.36399 2.04206 1.91122 2.81617 2.9033 2.80113 2.25925 2.0352 1.57845 1.62805 1.68078 3.09365 3.11074 2.94046 2.59226 1.39448 1.02298 1.10287 1.48702 1.58562 1.93218 2.11844 1.77386 2.36987 2.56499 2.11844 2.59226 0.805446 0.811263 0.610276 0.962383 1.27989 1.50934 1.60646 1.79612 2.08778 1.77741 1.84903 1.79612 1.55237 1.3423 1.60646 1.67177 2.98465 3.09365 2.93556 2.59226 2.56616 2.89898 3.01311 2.76338 1.90146 2.07723 2.03303 1.59704 2.89898 2.92305 3.00939 2.4616 2.23379 2.08633 1.94853 1.79612 2.29557 1.86596 1.9436 2.22492 2.76736 2.66955 2.35705 2.73155 1.2095 1.49777 1.34836 1.59704 1.82798 1.86596 2.27163 2.22492 2.80113 2.75839 2.72413 2.20118 1.85584 1.74084 1.59398 1.59704 2.94046 2.86879 3.09365 2.59226 1.34836 1.49777 1.38564 1.59398 2.03303 1.74084 1.85584 1.59704 2.08778 2.23379 1.94853 1.79612 1.91569 2.361 2.0352 2.39005 1.79063 1.48859 1.81839 1.68078 2.94046 2.76864 2.62334 2.59226 2.62334 2.76864 2.36987 2.59226 0.805446 1.01874 0.8 0.939091 2.29748 2.27163 2.1166 1.86596 3.06547 2.66955 2.96548 2.73155 2.56616 2.36399 2.09451 2.4616 0.872766 0.995758 1.2095 1.1432 1.00282 1.34836 1.32558 1.1432 1.9436 2.11844 2.39415 2.31076 0.610276 0.585835 0.4 0.68483 1.10287 1.02298 0.585835 0.962383 0.462989 0.818817 0.41411 0.698974 2.45235 2.21703 2.0352 2.39005 2.72413 2.74568 2.81617 2.22492 2.3783 2.35705 2.66955 2.24162 2.45235 2.56528 2.21703 2.39005 3.26222 3.11074 2.94046 3.09365 2.23379 2.08633 2.20585 1.94853 2.77664 2.66955 3.06547 2.73155 2.69331 2.23205 2.27163 2.22492 2.69331 2.72413 2.23205 2.22492 1.84903 1.56686 1.63469 1.48289 1.27989 1.00837 1.24623 1.48289 2.26621 1.91569 1.83843 2.20118 1.74794 2.03598 1.60646 1.79612 0.860606 0.818817 0.462989 0.698974 2.93556 2.81617 2.85384 2.31076 2.83136 2.89898 2.80596 2.39005 2.08633 2.03598 1.74794 1.79612 2.15333 2.07723 1.96748 1.67177 0.811263 0.729332 0.610276 0.962383 2.20585 2.08778 2.23379 1.94853 2.83136 2.75839 2.80113 2.20118 3.02166 3.06547 3.22216 2.73155 1.31253 1.10287 0.818817 1.34937 0.459218 0.585835 0.4 0.610276 1.01874 0.805446 0.8 0.913444 1.50121 1.2095 1.26125 1.59704 1.86596 2.27163 2.1166 1.82798 3.0435 2.76864 2.98465 2.56499 1.49777 1.34836 1.38564 1.2095 1.37169 1.03935 1.11163 0.939091 3.151 3.02166 3.22216 2.73155 1.75199 1.94853 1.50934 1.77741 2.98465 2.56499 2.76864 2.59226 2.86879 3.26222 2.94046 3.09365 3.02166 2.96243 2.76612 2.63689 3.0435 2.76864 3.11074 2.98465 2.69573 2.29557 2.74568 2.29748 1.2353 1.37169 1.11163 0.939091 1.75199 1.94853 1.74794 1.50934 2.76864 3.11074 2.98465 2.59226 2.54144 2.49816 2.77664 2.24162 0.860606 1.23679 1.35469 1.34937 1.50934 1.77741 1.94853 1.79612 2.74568 2.29748 2.29557 2.22492 2.69331 2.69573 2.74568 2.29748 1.2648 1.62805 1.57845 1.68078 1.26125 1.3423 1.55237 1.67177 1.94853 1.74794 1.50934 1.79612 3.06547 3.0274 2.96548 2.66955 0.52915 0.41411 0.462989 0.818817 0.585835 0.29282 0.41411 0.698974 1.75691 1.50121 1.90146 1.59704 3.14176 3.151 3.01089 2.63689 1.81839 2.09451 1.79063 1.68078 2.56528 2.85569 2.56616 2.39005 2.62334 2.94046 2.80598 2.76864 2.0352 2.21703 2.45235 2.38097 2.69331 2.66269 2.23205 2.72413 2.03598 1.94055 1.74794 1.60646 2.80598 2.36987 2.62334 2.76864 0.694825 0.34641 0.551117 0.698974 2.69331 2.66269 2.27163 2.23205 2.21703 2.56528 2.45235 2.38097 1.74794 2.08633 1.94055 2.03598 2.69331 2.29748 2.74568 2.22492 3.0274 3.06547 2.77664 2.66955 0.860606 0.52915 0.462989 0.818817 3.02367 3.151 3.12182 2.73155 1.34836 1.59398 1.74084 1.59704 2.80596 2.79386 2.361 2.39005 0.694825 1.04591 0.860606 0.698974 0.749166 0.551117 0.459218 0.698974 1.85584 1.88329 1.59398 1.74084 1.22329 1.48859 1.219 1.2353 1.01874 1.22329 1.219 1.2353 2.85569 2.89898 2.56616 2.39005 2.76338 2.36399 2.56616 2.4616 1.88329 1.85584 2.03303 1.74084 0.585835 0.459218 0.29282 0.698974 0.68483 0.585835 1.02298 0.962383 3.02367 3.00939 2.92305 2.4616 2.76736 2.36399 2.76338 2.4616 1.50121 1.75691 1.49777 1.59704 3.02166 2.77664 3.06547 2.73155 0.68483 1.02298 0.913444 0.962383 1.75691 1.90146 1.85584 1.59704 2.80596 2.85569 2.79386 2.39005 0.694825 0.462989 0.34641 0.698974 0.29282 0.551117 0.34641 0.698974 2.13324 2.35705 2.3783 2.24162 0.2 0.29282 0.41411 0.585835 2.45235 2.361 2.79386 2.39005 2.25903 2.48778 2.30635 2.02708 0.995758 0.872766 0.749166 1.1432 1.00282 1.32558 1.04591 1.1432 2.54144 2.35889 2.49816 2.24162 1.82798 2.27163 2.23205 2.22492 3.02166 3.35557 3.22216 3.06547 1.35469 1.23679 1.5718 1.34937 3.14176 3.01089 3.01464 2.63689 1.24623 1.27825 1.49118 1.56686 2.86879 2.94046 2.62334 2.59226 3.151 3.02166 3.35557 3.22216 1.31253 1.48666 1.10287 1.34937 2.7749 2.88405 2.85384 2.39415 0.2 0.29282 0.585835 0.459218 2.56528 2.85569 2.93248 2.56616 1.75691 1.85584 1.49777 1.59704 2.08633 2.23379 2.03598 1.79612 1.2095 1.38564 1.03923 1.34836 3.22216 3.23839 3.12182 2.73155 2.1166 1.86596 1.82798 1.58745 2.43117 2.08778 2.23379 2.20585 0.805446 0.6 0.8 0.913444 0.462989 0.29282 0.34641 0.698974 3.26