# vtk DataFile Version 3.0
ASCII
DATASET UNSTRUCTURED_GRID

POINTS 238 double
0.000000 0.000000 0.000000 
0.000000 0.000000 0.200000 
0.000000 0.000000 0.400000 
0.000000 0.000000 0.600000 
0.000000 0.000000 0.800000 
0.000000 0.000000 1.000000 
0.000000 0.146410 0.146410 
0.000000 0.146410 0.853590 
0.000000 0.162755 0.490332 
0.000000 0.188100 0.683861 
0.000000 0.191260 0.294343 
0.000000 0.200000 0.000000 
0.000000 0.200000 1.000000 
0.000000 0.300078 0.148263 
0.000000 0.300847 0.830646 
0.000000 0.310250 0.541877 
0.000000 0.335791 0.400477 
0.000000 0.390768 0.272758 
0.000000 0.396440 0.670581 
0.000000 0.400000 0.000000 
0.000000 0.400000 1.000000 
0.000000 0.488138 0.158081 
0.000000 0.500000 0.480385 
0.000000 0.500000 0.826795 
0.000000 0.530452 0.326795 
0.000000 0.600000 0.000000 
0.000000 0.600000 1.000000 
0.000000 0.603108 0.672771 
0.000000 0.679566 0.389530 
0.000000 0.681920 0.191601 
0.000000 0.689750 0.541877 
0.000000 0.699529 0.830378 
0.000000 0.800000 0.000000 
0.000000 0.800000 1.000000 
0.000000 0.817766 0.685866 
0.000000 0.837245 0.490332 
0.000000 0.838031 0.306190 
0.000000 0.853590 0.146410 
0.000000 0.853590 0.853590 
0.000000 1.000000 0.000000 
0.000000 1.000000 0.200000 
0.000000 1.000000 0.400000 
0.000000 1.000000 0.600000 
0.000000 1.000000 0.800000 
0.000000 1.000000 1.000000 
0.146410 0.000000 0.146410 
0.146410 0.000000 0.853590 
0.146410 0.146410 0.000000 
0.146410 0.146410 1.000000 
0.146410 0.853590 0.000000 
0.146410 0.853590 1.000000 
0.146410 1.000000 0.146410 
0.146410 1.000000 0.853590 
0.148263 0.300078 0.000000 
0.158081 0.488138 0.000000 
0.158968 0.305505 1.000000 
0.161969 1.000000 0.693810 
0.162755 1.000000 0.509668 
0.163707 0.000000 0.488665 
0.169297 0.699252 1.000000 
0.169382 0.000000 0.300114 
0.172261 0.501635 1.000000 
0.184184 0.222800 0.184184 
0.188100 1.000000 0.316139 
0.188190 0.000000 0.683641 
0.191601 0.681920 0.000000 
0.195369 0.222589 0.808762 
0.197659 0.782504 0.802531 
0.200000 0.000000 0.000000 
0.200000 0.000000 1.000000 
0.200000 1.000000 0.000000 
0.200000 1.000000 1.000000 
0.208975 0.209449 0.469320 
0.219869 0.501918 0.219869 
0.223130 0.813260 0.183284 
0.229688 0.525883 0.770385 
0.246189 0.785223 0.511614 
0.248578 0.555292 0.526452 
0.272758 0.390768 0.000000 
0.294343 0.191260 0.000000 
0.300029 0.300002 0.641951 
0.300748 0.000000 0.830703 
0.300847 1.000000 0.169354 
0.306190 0.838031 0.000000 
0.310250 1.000000 0.458123 
0.310303 0.000000 0.541798 
0.310671 0.185197 1.000000 
0.312325 0.314157 0.312325 
0.314077 0.000000 0.172485 
0.314105 0.687900 0.314105 
0.316107 0.811955 1.000000 
0.318080 1.000000 0.808399 
0.320434 1.000000 0.610470 
0.324466 0.399791 1.000000 
0.326795 0.530452 0.000000 
0.329252 0.603849 1.000000 
0.331277 0.000000 0.389314 
0.370715 0.703931 0.699539 
0.389530 0.679566 0.000000 
0.396160 0.000000 0.670734 
0.396440 1.000000 0.329419 
0.400000 0.000000 0.000000 
0.400000 0.000000 1.000000 
0.400000 1.000000 0.000000 
0.400000 1.000000 1.000000 
0.400477 0.335791 0.000000 
0.458123 0.310250 1.000000 
0.458123 0.689750 1.000000 
0.459879 0.468600 0.751959 
0.469548 1.000000 0.673205 
0.480385 0.500000 0.000000 
0.482779 0.229778 0.774439 
0.488751 0.751732 0.483007 
0.490332 0.162755 0.000000 
0.490332 0.837245 0.000000 
0.498365 0.000000 0.827739 
0.499871 0.250906 0.467101 
0.500000 0.000000 0.480385 
0.500000 0.500000 0.500000 
0.500000 1.000000 0.173205 
0.500000 1.000000 0.519615 
0.500053 0.211234 0.225626 
0.502673 0.776286 0.219932 
0.506082 0.000000 0.132376 
0.508033 0.163699 1.000000 
0.509668 0.837245 1.000000 
0.511862 1.000000 0.841919 
0.519615 0.500000 1.000000 
0.521218 0.550316 0.248783 
0.523101 0.000000 0.317597 
0.536672 0.795188 0.794235 
0.541877 0.310250 0.000000 
0.541877 0.689750 0.000000 
0.599523 0.664209 1.000000 
0.600000 0.000000 0.000000 
0.600000 0.000000 1.000000 
0.600000 1.000000 0.000000 
0.600000 1.000000 1.000000 
0.600202 0.000000 0.675519 
0.603108 1.000000 0.327229 
0.609232 1.000000 0.727242 
0.610165 0.320610 1.000000 
0.664209 1.000000 0.599523 
0.670581 0.396440 0.000000 
0.672771 0.603108 0.000000 
0.673205 0.469548 1.000000 
0.678373 0.000000 0.387667 
0.683861 0.188100 0.000000 
0.684210 0.000000 0.186538 
0.685262 0.687548 0.688537 
0.685866 0.817766 0.000000 
0.686038 0.311640 0.685747 
0.687462 0.314556 0.312541 
0.689697 0.000000 0.541798 
0.689750 1.000000 0.458123 
0.693615 0.162082 1.000000 
0.694476 0.000000 0.840999 
0.699529 1.000000 0.169622 
0.699922 1.000000 0.851737 
0.699949 0.699922 0.357250 
0.705657 0.808740 1.000000 
0.727242 0.609232 1.000000 
0.749092 0.500869 0.532942 
0.771957 0.517100 0.228043 
0.776530 0.184245 0.815742 
0.779692 0.220893 0.498778 
0.787887 0.499151 0.775328 
0.790157 0.790635 0.530838 
0.800000 0.000000 0.000000 
0.800000 0.000000 1.000000 
0.800000 1.000000 0.000000 
0.800000 1.000000 1.000000 
0.806408 0.781920 0.193592 
0.808399 0.318080 1.000000 
0.808740 1.000000 0.705657 
0.814700 0.000000 0.689149 
0.815716 0.777201 0.815716 
0.817766 1.000000 0.314134 
0.826795 0.500000 0.000000 
0.830378 0.699529 0.000000 
0.830577 0.000000 0.300184 
0.830646 0.300847 0.000000 
0.835350 0.000000 0.490300 
0.837245 1.000000 0.509668 
0.841919 0.511862 1.000000 
0.851737 0.699922 1.000000 
0.853590 0.000000 0.146410 
0.853590 0.000000 0.853590 
0.853590 0.146410 0.000000 
0.853590 0.146410 1.000000 
0.853590 0.853590 0.000000 
0.853590 0.853590 1.000000 
0.853590 1.000000 0.146410 
0.853590 1.000000 0.853590 
1.000000 0.000000 0.000000 
1.000000 0.000000 0.200000 
1.000000 0.000000 0.400000 
1.000000 0.000000 0.600000 
1.000000 0.000000 0.800000 
1.000000 0.000000 1.000000 
1.000000 0.146410 0.146410 
1.000000 0.146410 0.853590 
1.000000 0.163707 0.511335 
1.000000 0.169382 0.699886 
1.000000 0.188245 0.316391 
1.000000 0.200000 0.000000 
1.000000 0.200000 1.000000 
1.000000 0.300847 0.169354 
1.000000 0.310303 0.458202 
1.000000 0.314077 0.827515 
1.000000 0.331277 0.610686 
1.000000 0.396449 0.329432 
1.000000 0.400000 0.000000 
1.000000 0.400000 1.000000 
1.000000 0.500000 0.173205 
1.000000 0.500000 0.519615 
1.000000 0.506082 0.867624 
1.000000 0.523108 0.682416 
1.000000 0.600000 0.000000 
1.000000 0.600000 1.000000 
1.000000 0.603101 0.327245 
1.000000 0.678539 0.612619 
1.000000 0.684215 0.813472 
1.000000 0.689697 0.458202 
1.000000 0.699529 0.169623 
1.000000 0.800000 0.000000 
1.000000 0.800000 1.000000 
1.000000 0.817662 0.314314 
1.000000 0.830618 0.699886 
1.000000 0.836293 0.511335 
1.000000 0.853590 0.146410 
1.000000 0.853590 0.853590 
1.000000 1.000000 0.000000 
1.000000 1.000000 0.200000 
1.000000 1.000000 0.400000 
1.000000 1.000000 0.600000 
1.000000 1.000000 0.800000 
1.000000 1.000000 1.000000 

CELLS        791 3955
4   0  1  6  45  
4   0  6  11  47  
4   0  6  45  47  
4   0  45  47  68  
4   1  2  10  60  
4   1  6  10  60  
4   1  6  45  60  
4   2  3  8  58  
4   2  8  10  60  
4   2  8  58  60  
4   3  4  9  64  
4   3  8  9  64  
4   3  8  58  64  
4   4  5  7  46  
4   4  7  9  46  
4   4  9  46  64  
4   5  7  12  48  
4   5  7  46  48  
4   5  46  48  69  
4   6  10  13  62  
4   6  10  60  62  
4   6  11  13  62  
4   6  11  47  62  
4   6  45  47  62  
4   6  45  60  62  
4   7  9  14  66  
4   7  9  46  66  
4   7  12  14  55  
4   7  12  48  55  
4   7  14  55  66  
4   7  46  48  66  
4   7  48  55  66  
4   8  9  15  72  
4   8  9  64  72  
4   8  10  16  72  
4   8  10  60  72  
4   8  15  16  72  
4   8  58  60  72  
4   8  58  64  72  
4   9  14  18  66  
4   9  15  18  80  
4   9  15  72  80  
4   9  18  66  80  
4   9  46  64  66  
4   9  64  66  72  
4   9  64  66  80  
4   9  64  72  80  
4   9  66  72  80  
4   10  13  17  62  
4   10  16  17  62  
4   10  16  62  72  
4   10  60  62  72  
4   11  13  19  53  
4   11  13  53  62  
4   11  47  53  62  
4   12  14  20  55  
4   13  17  21  73  
4   13  17  62  73  
4   13  19  21  53  
4   13  21  53  73  
4   13  53  62  73  
4   14  18  23  75  
4   14  18  66  75  
4   14  20  23  55  
4   14  23  55  75  
4   14  55  66  75  
4   15  16  22  77  
4   15  16  72  77  
4   15  18  22  77  
4   15  18  77  80  
4   15  72  77  80  
4   16  17  24  73  
4   16  17  62  73  
4   16  17  62  87  
4   16  17  73  87  
4   16  22  24  73  
4   16  22  73  77  
4   16  62  72  87  
4   16  62  73  87  
4   16  72  77  87  
4   16  73  77  87  
4   17  21  24  73  
4   17  62  73  87  
4   18  22  27  77  
4   18  23  27  75  
4   18  27  75  77  
4   18  66  75  80  
4   18  75  77  80  
4   19  21  25  54  
4   19  21  53  54  
4   20  23  26  61  
4   20  23  55  61  
4   21  24  29  73  
4   21  25  29  54  
4   21  29  54  73  
4   21  53  54  73  
4   22  24  28  73  
4   22  27  30  77  
4   22  28  30  77  
4   22  28  73  77  
4   22  28  73  89  
4   22  28  77  89  
4   22  73  77  89  
4   23  26  31  61  
4   23  27  31  75  
4   23  31  61  75  
4   23  55  61  75  
4   24  28  29  73  
4   25  29  32  65  
4   25  29  54  65  
4   26  31  33  59  
4   26  31  59  61  
4   27  30  34  67  
4   27  30  34  76  
4   27  30  67  76  
4   27  30  67  77  
4   27  30  76  77  
4   27  31  34  67  
4   27  31  67  75  
4   27  34  67  76  
4   27  67  75  77  
4   27  67  76  77  
4   28  29  36  74  
4   28  29  36  89  
4   28  29  73  74  
4   28  29  73  89  
4   28  29  74  89  
4   28  30  35  76  
4   28  30  76  77  
4   28  35  36  76  
4   28  36  74  76  
4   28  36  74  89  
4   28  36  76  89  
4   28  73  74  89  
4   28  73  77  89  
4   28  74  76  89  
4   28  76  77  89  
4   29  32  37  49  
4   29  32  49  65  
4   29  36  37  74  
4   29  36  74  89  
4   29  37  49  74  
4   29  49  65  74  
4   29  54  65  73  
4   29  65  73  74  
4   29  65  73  89  
4   29  65  74  89  
4   29  73  74  89  
4   30  34  35  76  
4   30  34  67  76  
4   30  67  76  77  
4   31  33  38  59  
4   31  34  38  67  
4   31  38  59  67  
4   31  59  61  75  
4   31  59  67  75  
4   32  37  39  49  
4   33  38  44  50  
4   33  38  50  59  
4   34  35  42  57  
4   34  35  57  76  
4   34  38  43  56  
4   34  38  56  67  
4   34  42  43  56  
4   34  42  56  57  
4   34  56  57  76  
4   34  56  67  76  
4   35  36  41  63  
4   35  36  63  76  
4   35  41  42  57  
4   35  41  57  63  
4   35  57  63  76  
4   36  37  40  51  
4   36  37  51  74  
4   36  40  41  63  
4   36  40  51  63  
4   36  51  63  74  
4   36  63  74  76  
4   36  74  76  89  
4   37  39  40  51  
4   37  39  49  51  
4   37  49  51  74  
4   38  43  44  52  
4   38  43  52  56  
4   38  44  50  52  
4   38  50  52  67  
4   38  50  59  67  
4   38  52  56  67  
4   39  49  51  70  
4   44  50  52  71  
4   45  47  62  88  
4   45  47  68  88  
4   45  60  62  88  
4   46  48  66  81  
4   46  48  69  81  
4   46  64  66  81  
4   47  53  62  79  
4   47  62  79  88  
4   47  68  79  88  
4   48  55  66  86  
4   48  66  81  86  
4   48  69  81  86  
4   49  51  70  74  
4   49  65  74  83  
4   49  70  74  83  
4   50  52  67  90  
4   50  52  71  90  
4   50  59  67  90  
4   51  63  74  82  
4   51  70  74  82  
4   52  56  67  91  
4   52  67  90  91  
4   52  71  90  91  
4   53  54  73  78  
4   53  62  73  78  
4   53  62  78  79  
4   54  65  73  94  
4   54  73  78  94  
4   55  61  75  93  
4   55  66  75  93  
4   55  66  86  93  
4   56  57  76  92  
4   56  67  76  92  
4   56  67  91  92  
4   57  63  76  84  
4   57  76  84  92  
4   58  60  72  96  
4   58  64  72  85  
4   58  72  85  96  
4   59  61  75  95  
4   59  67  75  95  
4   59  67  90  95  
4   60  62  72  96  
4   60  62  88  96  
4   61  75  93  95  
4   62  72  87  96  
4   62  73  78  87  
4   62  73  78  105  
4   62  73  87  105  
4   62  78  79  105  
4   62  78  87  105  
4   62  79  88  121  
4   62  79  105  121  
4   62  87  88  96  
4   62  87  88  121  
4   62  87  96  121  
4   62  87  105  121  
4   62  88  96  121  
4   63  74  76  100  
4   63  74  82  100  
4   63  76  84  100  
4   64  66  72  80  
4   64  66  80  99  
4   64  66  81  99  
4   64  72  80  85  
4   64  80  85  99  
4   65  73  74  89  
4   65  73  74  98  
4   65  73  89  98  
4   65  73  94  98  
4   65  74  83  98  
4   65  74  89  98  
4   66  75  80  108  
4   66  75  93  108  
4   66  80  99  111  
4   66  80  108  111  
4   66  81  86  111  
4   66  81  99  111  
4   66  86  93  111  
4   66  93  108  111  
4   67  75  77  97  
4   67  75  95  97  
4   67  76  77  97  
4   67  76  92  97  
4   67  90  91  97  
4   67  90  91  130  
4   67  90  95  97  
4   67  90  97  130  
4   67  91  92  97  
4   67  91  97  130  
4   68  79  88  101  
4   69  81  86  102  
4   70  74  82  83  
4   70  82  83  103  
4   71  90  91  104  
4   72  77  80  87  
4   72  80  85  116  
4   72  80  87  116  
4   72  85  96  116  
4   72  87  96  116  
4   73  74  89  98  
4   73  77  87  118  
4   73  77  89  118  
4   73  78  87  105  
4   73  78  94  105  
4   73  87  105  128  
4   73  87  118  128  
4   73  89  98  110  
4   73  89  98  128  
4   73  89  110  128  
4   73  89  118  128  
4   73  94  98  110  
4   73  94  105  110  
4   73  98  110  128  
4   73  105  110  128  
4   74  76  89  100  
4   74  82  83  122  
4   74  82  100  122  
4   74  83  98  122  
4   74  89  98  122  
4   74  89  100  122  
4   75  77  80  108  
4   75  77  97  108  
4   75  93  95  108  
4   75  95  97  108  
4   76  77  89  112  
4   76  77  97  112  
4   76  84  92  112  
4   76  84  100  112  
4   76  89  100  112  
4   76  92  97  112  
4   77  80  87  118  
4   77  80  108  118  
4   77  89  112  118  
4   77  97  108  118  
4   77  97  112  118  
4   79  88  101  113  
4   79  88  113  121  
4   79  105  113  121  
4   80  85  99  116  
4   80  87  116  118  
4   80  99  111  116  
4   80  108  111  116  
4   80  108  116  118  
4   81  86  102  115  
4   81  86  111  115  
4   81  99  111  115  
4   82  83  103  114  
4   82  83  114  122  
4   82  100  119  122  
4   82  103  114  119  
4   82  114  119  122  
4   83  98  114  122  
4   84  92  112  120  
4   84  100  112  120  
4   85  96  116  117  
4   85  99  116  117  
4   86  93  106  111  
4   86  102  115  124  
4   86  106  111  124  
4   86  111  115  124  
4   87  88  96  121  
4   87  96  116  121  
4   87  105  121  128  
4   87  116  118  128  
4   87  116  121  128  
4   88  96  121  129  
4   88  101  113  123  
4   88  113  121  123  
4   88  121  123  129  
4   89  98  110  128  
4   89  98  122  128  
4   89  100  112  122  
4   89  112  118  128  
4   89  112  122  128  
4   90  91  97  130  
4   90  91  104  126  
4   90  91  126  130  
4   90  95  97  107  
4   90  97  107  130  
4   90  104  125  126  
4   90  107  125  130  
4   90  125  126  130  
4   91  92  97  109  
4   91  97  109  130  
4   91  109  126  130  
4   92  97  109  112  
4   92  109  112  120  
4   93  95  108  127  
4   93  106  108  111  
4   93  106  108  127  
4   95  97  107  108  
4   95  107  108  127  
4   96  116  117  129  
4   96  116  121  129  
4   97  107  108  130  
4   97  108  118  149  
4   97  108  130  149  
4   97  109  112  130  
4   97  112  118  149  
4   97  112  130  149  
4   98  110  128  132  
4   98  114  122  132  
4   98  122  128  132  
4   99  111  115  138  
4   99  111  116  138  
4   99  116  117  138  
4   100  112  120  139  
4   100  112  122  139  
4   100  119  122  139  
4   101  113  123  134  
4   102  115  124  135  
4   103  114  119  136  
4   104  125  126  137  
4   105  110  128  131  
4   105  113  121  131  
4   105  121  128  131  
4   106  108  111  141  
4   106  108  127  141  
4   106  111  124  141  
4   107  108  127  133  
4   107  108  130  133  
4   107  125  130  133  
4   108  111  116  151  
4   108  111  141  151  
4   108  116  118  151  
4   108  116  118  162  
4   108  116  151  162  
4   108  118  149  162  
4   108  118  151  162  
4   108  127  133  145  
4   108  127  141  145  
4   108  130  133  149  
4   108  133  145  166  
4   108  133  149  166  
4   108  141  145  166  
4   108  141  151  166  
4   108  149  162  166  
4   108  151  162  166  
4   109  112  120  142  
4   109  112  130  142  
4   109  126  130  140  
4   109  130  140  142  
4   110  128  131  143  
4   110  128  132  144  
4   110  128  143  144  
4   111  115  124  156  
4   111  115  138  156  
4   111  116  138  151  
4   111  124  141  155  
4   111  124  155  156  
4   111  138  151  164  
4   111  138  156  164  
4   111  141  151  164  
4   111  141  155  164  
4   111  155  156  164  
4   112  118  128  159  
4   112  118  128  162  
4   112  118  149  159  
4   112  118  149  162  
4   112  118  159  162  
4   112  120  139  154  
4   112  120  142  154  
4   112  122  128  159  
4   112  122  139  159  
4   112  128  159  162  
4   112  130  142  149  
4   112  139  154  159  
4   112  142  149  167  
4   112  142  154  167  
4   112  149  159  162  
4   112  149  159  167  
4   112  149  162  167  
4   112  154  159  167  
4   112  159  162  167  
4   113  121  123  147  
4   113  121  131  147  
4   113  123  134  147  
4   114  119  122  150  
4   114  119  136  150  
4   114  122  132  150  
4   115  124  135  156  
4   116  117  129  146  
4   116  117  138  153  
4   116  117  146  153  
4   116  118  128  152  
4   116  118  128  162  
4   116  118  151  162  
4   116  118  152  162  
4   116  121  128  152  
4   116  121  129  146  
4   116  121  146  152  
4   116  128  152  162  
4   116  138  151  153  
4   116  146  152  165  
4   116  146  153  165  
4   116  151  153  165  
4   116  151  162  165  
4   116  152  162  165  
4   118  128  152  162  
4   118  128  159  162  
4   118  149  159  162  
4   119  122  139  157  
4   119  122  150  157  
4   119  136  150  157  
4   121  123  129  148  
4   121  123  147  148  
4   121  128  131  152  
4   121  129  146  148  
4   121  131  147  152  
4   121  146  148  152  
4   121  147  148  152  
4   122  128  132  144  
4   122  128  144  159  
4   122  132  144  150  
4   122  132  144  172  
4   122  132  150  172  
4   122  139  157  172  
4   122  139  159  172  
4   122  144  150  172  
4   122  144  159  172  
4   122  150  157  172  
4   123  134  147  148  
4   124  135  155  156  
4   125  126  130  158  
4   125  126  137  158  
4   125  130  133  160  
4   125  130  158  160  
4   125  137  158  160  
4   126  130  140  158  
4   128  131  143  152  
4   128  143  144  163  
4   128  143  152  163  
4   128  144  159  163  
4   128  152  162  163  
4   128  159  162  163  
4   130  133  149  176  
4   130  133  160  176  
4   130  140  142  149  
4   130  140  149  176  
4   130  140  158  176  
4   130  158  160  176  
4   131  143  147  152  
4   132  144  150  172  
4   133  145  161  166  
4   133  149  161  166  
4   133  149  161  176  
4   133  149  166  176  
4   133  160  161  176  
4   133  161  166  176  
4   134  147  148  168  
4   135  155  156  169  
4   136  150  157  170  
4   137  158  160  171  
4   138  151  153  175  
4   138  151  164  175  
4   138  156  164  175  
4   139  154  159  177  
4   139  157  172  177  
4   139  159  172  177  
4   140  142  149  174  
4   140  149  174  176  
4   140  158  174  176  
4   141  145  166  173  
4   141  151  164  166  
4   141  151  164  173  
4   141  151  166  173  
4   141  155  164  173  
4   141  164  166  173  
4   142  149  167  174  
4   142  154  167  183  
4   142  167  174  183  
4   143  144  163  178  
4   143  147  152  181  
4   143  152  163  181  
4   143  163  178  181  
4   144  150  172  179  
4   144  159  163  172  
4   144  163  172  179  
4   144  163  178  179  
4   145  161  166  184  
4   145  166  173  184  
4   146  148  152  180  
4   146  152  165  180  
4   146  153  165  182  
4   146  165  180  182  
4   147  148  152  186  
4   147  148  168  186  
4   147  152  181  188  
4   147  152  186  188  
4   147  168  186  188  
4   148  152  180  186  
4   149  159  162  167  
4   149  161  166  176  
4   149  162  166  221  
4   149  162  167  221  
4   149  166  176  221  
4   149  167  174  176  
4   149  167  176  221  
4   150  157  170  190  
4   150  157  172  190  
4   150  172  179  190  
4   151  153  165  175  
4   151  162  165  210  
4   151  162  166  210  
4   151  164  165  175  
4   151  164  165  203  
4   151  164  165  210  
4   151  164  166  173  
4   151  164  166  209  
4   151  164  166  210  
4   151  164  173  209  
4   151  164  175  203  
4   151  164  203  209  
4   151  164  203  210  
4   151  164  209  210  
4   151  165  175  203  
4   151  165  203  210  
4   151  166  173  209  
4   151  166  209  210  
4   151  203  209  210  
4   152  162  163  211  
4   152  162  165  208  
4   152  162  208  211  
4   152  163  181  207  
4   152  163  207  211  
4   152  165  180  204  
4   152  165  204  208  
4   152  180  186  200  
4   152  180  200  204  
4   152  181  188  207  
4   152  186  188  200  
4   152  188  200  207  
4   152  200  204  207  
4   152  204  207  211  
4   152  204  208  211  
4   153  165  175  182  
4   154  159  167  177  
4   154  167  177  183  
4   155  156  164  169  
4   155  164  169  189  
4   155  164  173  189  
4   156  164  169  187  
4   156  164  175  187  
4   157  170  190  192  
4   157  172  177  192  
4   157  172  190  192  
4   158  160  171  191  
4   158  160  176  191  
4   158  171  191  193  
4   158  174  176  193  
4   158  176  191  193  
4   159  162  163  220  
4   159  162  167  223  
4   159  162  220  223  
4   159  163  172  220  
4   159  167  172  177  
4   159  167  172  227  
4   159  167  177  227  
4   159  167  223  227  
4   159  172  177  227  
4   159  172  220  227  
4   159  220  223  227  
4   160  161  176  185  
4   160  176  185  191  
4   161  166  176  185  
4   161  166  184  185  
4   162  163  211  220  
4   162  165  208  210  
4   162  166  210  217  
4   162  166  217  221  
4   162  167  221  223  
4   162  208  210  215  
4   162  208  211  215  
4   162  210  215  217  
4   162  211  215  220  
4   162  215  217  221  
4   162  215  220  223  
4   162  215  221  223  
4   163  172  179  224  
4   163  172  220  224  
4   163  178  179  224  
4   163  178  181  207  
4   163  178  207  214  
4   163  178  214  224  
4   163  207  211  214  
4   163  211  214  220  
4   163  214  220  224  
4   164  165  175  203  
4   164  165  203  210  
4   164  166  173  209  
4   164  166  209  210  
4   164  169  187  189  
4   164  173  189  209  
4   164  175  187  203  
4   164  187  189  201  
4   164  187  201  203  
4   164  189  201  209  
4   164  201  203  209  
4   164  203  209  210  
4   165  175  182  202  
4   165  175  202  203  
4   165  180  182  204  
4   165  182  202  204  
4   165  202  203  210  
4   165  202  204  208  
4   165  202  208  210  
4   166  173  184  216  
4   166  173  209  216  
4   166  176  185  222  
4   166  176  221  222  
4   166  184  185  222  
4   166  184  216  222  
4   166  209  210  217  
4   166  209  216  217  
4   166  216  217  222  
4   166  217  221  222  
4   167  172  177  227  
4   167  174  176  228  
4   167  174  183  228  
4   167  176  221  228  
4   167  177  183  227  
4   167  183  227  229  
4   167  183  228  229  
4   167  221  223  229  
4   167  221  228  229  
4   167  223  227  229  
4   168  186  188  194  
4   169  187  189  199  
4   170  190  192  232  
4   171  191  193  237  
4   172  177  192  230  
4   172  177  227  230  
4   172  179  190  230  
4   172  179  224  230  
4   172  190  192  230  
4   172  220  224  227  
4   172  224  227  230  
4   173  184  213  216  
4   173  189  206  209  
4   173  206  209  213  
4   173  209  213  216  
4   174  176  193  228  
4   174  183  228  235  
4   174  193  228  236  
4   174  228  235  236  
4   175  182  197  202  
4   175  187  198  203  
4   175  197  198  203  
4   175  197  202  203  
4   176  185  191  226  
4   176  185  222  226  
4   176  191  193  231  
4   176  191  226  231  
4   176  193  228  231  
4   176  221  222  228  
4   176  222  226  231  
4   176  222  228  231  
4   177  183  227  234  
4   177  192  230  233  
4   177  227  230  233  
4   177  227  233  234  
4   178  179  218  224  
4   178  181  207  212  
4   178  207  212  214  
4   178  212  214  218  
4   178  214  218  224  
4   179  190  225  230  
4   179  218  224  225  
4   179  224  225  230  
4   180  182  196  204  
4   180  186  195  200  
4   180  195  196  204  
4   180  195  200  204  
4   181  188  205  207  
4   181  205  207  212  
4   182  196  197  202  
4   182  196  202  204  
4   183  227  229  234  
4   183  228  229  235  
4   183  229  234  235  
4   184  185  219  222  
4   184  213  216  219  
4   184  216  219  222  
4   185  219  222  226  
4   186  188  194  200  
4   186  194  195  200  
4   187  189  199  201  
4   187  198  199  201  
4   187  198  201  203  
4   188  194  200  205  
4   188  200  205  207  
4   189  199  201  206  
4   189  201  206  209  
4   190  192  230  232  
4   190  225  230  232  
4   191  193  231  237  
4   191  226  231  237  
4   192  230  232  233  
4   193  228  231  236  
4   193  231  236  237  

CELL_TYPES 791
10 10 10 10 10 10 10 10 10 10 10 10 10 10 10 10 10 10 10 10 10 10 10 10 10 10 10 10 10 10 10 10 10 10 10 10 10 10 10 10 10 10 10 10 10 10 10 10 10 10 10 10 10 10 10 10 10 10 10 10 10 10 10 10 10 10 10 10 10 10 10 10 10 10 10 10 10 10 10 10 10 10 10 10 10 10 10 10 10 10 10 10 10 10 10 10 10 10 10 10 10 10 10 10 10 10 10 10 10 10 10 10 10 10 10 10 10 10 10 10 10 10 10 10 10 10 10 10 10 10 10 10 10 10 10 10 10 10 10 10 10 10 10 10 10 10 10 10 10 10 10 10 10 10 10 10 10 10 10 10 10 10 10 10 10 10 10 10 10 10 10 10 10 10 10 10 10 10 10 10 10 10 10 10 10 10 10 10 10 10 10 10 10 10 10 10 10 10 10 10 10 10 10 10 10 10 10 10 10 10 10 10 10 10 10 10 10 10 10 10 10 10 10 10 10 10 10 10 10 10 10 10 10 10 10 10 10 10 10 10 10 10 10 10 10 10 10 10 10 10 10 10 10 10 10 10 10 10 10 10 10 10 10 10 10 10 10 10 10 10 10 10 10 10 10 10 10 10 10 10 10 10 10 10 10 10 10 10 10 10 10 10 10 10 10 10 10 10 10 10 10 10 10 10 10 10 10 10 10 10 10 10 10 10 10 10 10 10 10 10 10 10 10 10 10 10 10 10 10 10 10 10 10 10 10 10 10 10 10 10 10 10 10 10 10 10 10 10 10 10 10 10 10 10 10 10 10 10 10 10 10 10 10 10 10 10 10 10 10 10 10 10 10 10 10 10 10 10 10 10 10 10 10 10 10 10 10 10 10 10 10 10 10 10 10 10 10 10 10 10 10 10 10 10 10 10 10 10 10 10 10 10 10 10 10 10 10 10 10 10 10 10 10 10 10 10 10 10 10 10 10 10 10 10 10 10 10 10 10 10 10 10 10 10 10 10 10 10 10 10 10 10 10 10 10 10 10 10 10 10 10 10 10 10 10 10 10 10 10 10 10 10 10 10 10 10 10 10 10 10 10 10 10 10 10 10 10 10 10 10 10 10 10 10 10 10 10 10 10 10 10 10 10 10 10 10 10 10 10 10 10 10 10 10 10 10 10 10 10 10 10 10 10 10 10 10 10 10 10 10 10 10 10 10 10 10 10 10 10 10 10 10 10 10 10 10 10 10 10 10 10 10 10 10 10 10 10 10 10 10 10 10 10 10 10 10 10 10 10 10 10 10 10 10 10 10 10 10 10 10 10 10 10 10 10 10 10 10 10 10 10 10 10 10 10 10 10 10 10 10 10 10 10 10 10 10 10 10 10 10 10 10 10 10 10 10 10 10 10 10 10 10 10 10 10 10 10 10 10 10 10 10 10 10 10 10 10 10 10 10 10 10 10 10 10 10 10 10 10 10 10 10 10 10 10 10 10 10 10 10 10 10 10 10 10 10 10 10 10 10 10 10 10 10 10 10 10 10 10 10 10 10 10 10 10 10 10 10 10 10 10 10 10 10 10 10 10 10 10 10 10 10 10 10 10 10 10 10 10 10 10 10 10 10 10 10 10 10 10 10 10 10 10 10 10 10 10 10 10 10 10 10 10 10 10 10 10 10 10 10 10 10 10 10 10 10 10 10 10 10 10 10 10 10 10 10 10 10 10 10 10 10 10 10 10 10 10 10 10 10 10 10 10 10 10 10 10 10 10 10 10 10 10 10 10 10 10 10 10 10 10 
POINT_DATA 238
SCALARS solution double 1
LOOKUP_TABLE default
0 0.2 0.4 0.6 0.8 1 0.207055 0.886197 0.53751 0.73082 0.360839 0.2 1.04198 0.349537 0.911607 0.65244 0.539728 0.499188 0.807338 0.4 1.10724 0.531776 0.718364 0.994761 0.647945 0.6 1.19476 0.93396 0.809589 0.727734 0.907796 1.11784 0.8 1.31393 1.09965 0.996735 0.917717 0.88497 1.24339 1 1.04072 1.10434 1.19299 1.31382 1.45044 0.207055 0.885679 0.207055 1.05911 0.88496 1.3823 1.0578 1.3826 0.349537 0.531777 1.10485 1.28704 1.19083 0.535168 1.29313 0.357724 1.19334 0.379306 1.11567 0.729805 0.727735 0.91028 1.19413 0.2 1.04149 1.04069 1.49622 0.599711 0.634198 0.909332 1.02428 1.03049 0.861369 0.499189 0.36084 0.814867 0.911605 1.10322 0.917718 1.20955 0.655959 1.11406 0.58225 0.371798 0.862999 1.39705 1.39487 1.27816 1.18997 0.647946 1.28266 0.535801 1.11895 0.80959 0.810865 1.17697 0.4 1.10748 1.10434 1.54933 0.53973 1.21401 1.36938 1.05452 1.36347 0.718364 1.0044 1.07598 0.537511 0.996736 0.998205 0.789755 0.721061 0.906259 1.18928 1.30037 0.632658 1.01108 0.541906 1.19348 1.47436 1.47776 1.30096 0.854748 0.626256 1.30697 0.652442 0.907796 1.39991 0.6 1.19821 1.19299 1.61536 0.937257 1.27659 1.44946 1.27891 1.40155 0.80734 0.933979 1.36534 0.796606 0.730819 0.728086 1.23036 1.09965 1.08267 0.863638 0.905247 1.36835 1.28905 1.12624 1.29052 1.55774 1.11161 1.53017 1.45298 1.10603 1.02065 1.20081 1.00868 1.28661 1.29959 0.8 1.31685 1.31382 1.69455 1.19806 1.39561 1.52899 1.0979 1.43341 1.40115 0.994763 1.11786 0.905985 0.911605 0.984157 1.47426 1.48352 1.55939 0.884488 1.24437 0.886195 1.38083 1.2434 1.62363 1.3826 1.62898 1 1.04008 1.10087 1.182 1.311 1.45143 1.06039 1.3823 1.18637 1.2881 1.11826 1.04198 1.49486 1.11033 1.20186 1.40436 1.27899 1.18017 1.10723 1.54927 1.19425 1.30331 1.4955 1.38606 1.19476 1.62075 1.2798 1.42167 1.53481 1.37256 1.28876 1.31395 1.69019 1.40017 1.5439 1.47565 1.37596 1.62611 1.45045 1.49291 1.54967 1.61579 1.69521 1.79524 
