# vtk DataFile Version 3.0
#vtk output
ASCII
DATASET POLYDATA

POINTS 35947 float
-0.242967 0.821714 0.0287392 -0.287602 0.827796 0.012235 -0.436801 0.971387 0.238892
-0.0146912 0.835908 0.149135 -0.145187 0.813589 0.0459596 -0.161259 0.808746 0.0400918
-0.238415 0.81856 0.0115325 0.213315 0.723781 0.177818 0.244334 0.704918 0.103847
-0.163831 0.722985 0.235562 -0.157551 0.723421 0.239866 0.176 0.780737 0.136294
-0.40396 1.01747 -0.112956 0.257428 0.669253 0.14238 0.290003 0.59857 0.0716793
-0.208714 1.11902 -0.0153501 -0.516758 0.872369 0.321337 -0.465606 0.809395 0.339771
-0.516622 0.881374 0.315319 0.0513689 0.843255 0.108547 0.257076 0.687288 0.0524413
0.238702 0.640449 -0.0630228 -0.581871 0.903211 0.142386 -0.541697 0.700094 0.156458
-0.442334 1.00359 0.0948657 -0.542574 0.978067 0.173311 0.0344715 0.807822 0.20419
0.0573677 0.798933 0.212431 -0.202579 0.807828 0.0248879 -0.319039 0.90991 0.0795734
-0.504066 0.872523 0.325278 -0.0273529 0.822324 0.181981 -0.292095 0.792754 0.161343
-0.15118 0.723704 0.244047 -0.50752 0.600912 -0.0680557 0.151409 0.79777 0.145422
-0.579405 0.787828 0.0339469 0.259309 0.650955 -0.018165 0.264767 0.651186 -0.00523085
-0.552198 0.751733 0.00146718 -0.320524 0.909967 0.0860564 -0.208748 1.13748 -0.028477
-0.497726 0.944309 0.267764 0.154344 0.797693 0.137331 -0.144641 0.723711 0.247135
-0.129749 1.1377 -0.146313 -0.245289 1.08008 -0.0820956 -0.138082 0.723608 0.249287
-0.207044 0.811161 0.041992 -0.195078 0.807834 0.0464088 0.0669375 0.821123 0.178851
-0.2978 0.854585 0.102926 -0.168966 0.807147 0.0372495 -0.153216 0.811129 0.0430237
0.112182 0.788804 0.195442 0.118248 0.786929 0.197552 0.106861 0.791925 0.193525
0.216865 0.717339 0.179147 0.205836 0.736357 0.174957 -0.260146 1.0709 0.0227384
-0.572506 0.831752 0.0271761 -0.345248 0.919299 0.169568 0.276023 0.634028 0.116678
0.273849 0.651822 0.0716787 0.262975 0.614976 0.180884 -0.353734 0.990539 0.107383
-0.158589 1.0056 -0.0262146 -0.440013 0.944136 0.265157 -0.45944 0.908233 0.29822
-0.449807 0.405574 0.128817 -0.580853 0.7705 0.0340185 -0.48487 0.818509 0.340659
-0.253933 1.06136 0.019957 -0.260253 1.06134 0.0243601 -0.414195 1.0375 -0.118805
-0.220371 0.813454 0.0181589 -0.295694 0.852652 0.0942819 -0.438509 0.996936 0.0308917
-0.591796 0.745817 0.246053 0.0404642 0.8061 0.206304 0.0460798 0.803724 0.208389
0.0517382 0.801335 0.210407 -0.208308 0.809954 0.0228275 -0.406922 1.00134 0.0795464
0.201939 0.742066 0.1735 0.198131 0.747802 0.172078 -0.189579 1.1287 -0.0337459
0.254653 0.623173 -0.0435171 -0.459372 1.06039 -0.107502 -0.466055 1.06085 -0.109468
-0.0481255 0.786164 0.22629 -0.0545861 0.786325 0.224902 0.185678 0.596791 0.280688
-0.0867141 1.05092 -0.0759286 -0.279358 1.07075 0.0251483 -0.194268 0.804456 0.0186478
-0.274445 1.09062 0.00564896 -0.131723 0.723807 0.250318 -0.581462 0.867809 0.136229
-0.491908 1.11007 -0.24909 -0.491322 0.818515 0.341786 -0.125185 0.723672 0.252367
-0.555496 0.665123 0.0347054 -0.321543 0.909916 0.0924617 0.238067 0.704687 0.148862
0.207243 0.6559 0.233044 -0.221543 1.09985 -0.00500343 -0.491211 0.908156 0.302967
-0.491173 0.943924 0.270635 -0.253542 1.09898 0.00386209 0.251619 0.687082 0.129534
-0.546702 0.6996 0.0344432 0.29088 0.553498 0.129501 0.110629 0.817732 0.139539
-0.00332212 0.248066 0.300789 0.00320477 0.247878 0.299529 0.00953982 0.247815 0.29822
0.0159441 0.247652 0.296487 -0.101242 0.822035 0.0247752 -0.46577 0.908297 0.299922
-0.324338 1.00458 0.0654564 -0.582816 0.867745 0.129801 -0.484886 0.90831 0.303131
-0.228093 1.13505 -0.0511476 0.261187 0.678469 0.0331596 -0.591114 0.81531 0.213574
0.240798 0.631386 -0.0627647 0.260062 0.632804 -0.031003 0.268742 0.633296 -0.0116166
0.196888 0.65572 0.240707 0.293852 0.553676 0.0845497 -0.196105 1.14744 -0.0363106
-0.1825 1.14807 -0.038206 -0.459176 0.782291 0.343755 -0.465668 0.944007 0.272233
-0.391785 0.833152 0.256235 0.27366 0.597577 0.168091 -0.0569012 0.836935 0.0966718
-0.111333 0.824463 0.076926 -0.201083 0.809369 0.0442199 -0.450039 0.999634 0.0454278
0.0780801 0.79348 0.210875 -0.0599342 0.817468 0.17967 -0.422118 0.988619 0.205089
-0.461011 0.993487 0.191452 0.123976 0.777333 0.208813 -0.273065 1.10386 -0.0213285
-0.283994 1.09708 -0.0251401 -0.369056 0.256877 0.299825 -0.362823 0.257076 0.301073
-0.356375 0.257115 0.30168 -0.350029 0.257119 0.301645 -0.118851 0.723922 0.253506
-0.324321 1.01391 0.0606031 -0.484819 0.944097 0.271564 -0.0881438 1.04143 -0.0759941
-0.472458 1.05152 -0.0963256 -0.459217 1.05094 -0.0888792 0.24835 0.686857 0.148777
0.250716 0.696093 0.0909845 0.271011 0.597017 -0.0308176 -0.292228 1.0517 0.0356632
-0.279534 1.05168 0.0336729 -0.272877 0.254755 0.278698 -0.266577 0.2545 0.276555
-0.451937 1.07117 -0.132767 -0.163238 0.581333 0.314783 -0.226114 0.815593 0.0160997
-0.560535 0.893564 0.0461974 -0.0946416 0.802105 0.186311 -0.231226 1.11805 -0.0764032
-0.572669 0.596629 0.0734963 -0.21442 0.811656 0.0203795 0.123825 0.784623 0.199681
-0.41495 1.01182 -0.072689 -0.411713 1.00425 -0.0714648 -0.408426 0.997116 -0.0702644
-0.405455 0.989281 -0.0691636 -0.455794 0.889203 -0.048486 -0.453101 0.908163 0.295753
-0.485371 1.0608 -0.129447 -0.492692 1.06132 -0.147348 0.190237 0.751488 0.178313
0.194313 0.738617 0.189041 0.260741 0.651282 0.155259 0.244452 0.695849 0.1424
0.259746 0.678457 0.0974033 -0.112366 0.723839 0.254131 -0.472039 0.944219 0.272458
-0.471842 0.744835 0.333605 0.0866576 0.732285 0.244057 0.0802093 0.732362 0.245639
-0.530703 0.708155 0.182404 0.267963 0.642316 -0.00521811 -0.497698 0.87251 0.326009
-0.105911 0.723858 0.25564 -0.0995485 0.724064 0.257472 -0.228003 1.09975 0.00112006
-0.23414 1.0998 0.00412788 -0.240887 1.09961 0.0052538 -0.247269 1.09931 0.00492841
-0.397623 0.758431 -0.0659972 -0.455822 1.07007 -0.308363 -0.587454 0.938542 0.155108
-0.0930603 0.72407 0.259694 -0.0866184 0.724096 0.261225 -0.0802767 0.724334 0.262365
0.0095368 0.256832 0.298208 0.015973 0.256667 0.296529 0.0223429 0.256553 0.295291
-0.138148 0.732458 0.242099 -0.580049 0.81418 0.0339388 0.0673832 0.732599 0.24904
-0.492581 1.10102 -0.230526 0.177524 0.759273 0.182679 0.198984 0.658219 -0.0933391
0.272904 0.651719 0.0332223 0.00319743 0.733441 0.26602 -0.433641 0.944072 0.262704
0.272358 0.65179 0.0267587 0.260435 0.64175 -0.0243647 -0.465575 0.818438 0.336742
-0.267173 1.09143 0.0082953 -0.0936968 0.827873 0.0554734 0.0277696 0.846203 0.072479
-0.407904 0.970796 0.232418 0.222166 0.731264 0.144479 0.136899 0.252988 0.264106
0.112587 0.595277 0.310291 0.0450861 0.844347 0.106253 -0.0737294 0.724173 0.264297
0.245265 0.705078 0.0845722 -0.509955 0.618459 -0.0611025 0.265209 0.651411 0.135904
0.26928 0.651655 0.110208 -0.506094 0.727924 -0.0205801 -0.500762 0.869704 -0.0337477
0.0393787 0.680062 -0.134177 0.0586797 0.679972 -0.131039 0.0714192 0.833242 0.143461
0.0281013 0.842298 0.12765 -0.0129555 0.84217 0.112646 -0.233477 0.813897 0.117536
-0.10326 0.8268 0.0798573 -0.212741 0.813319 0.0399342 0.0612565 0.823294 0.176677
-0.142143 0.78996 0.16963 -0.455585 1.04554 -0.0785259 -0.398591 0.999435 0.0545318
-0.300832 0.853307 0.130188 -0.2635 1.10836 -0.0181275 -0.247653 1.1123 -0.0122646
-0.0906114 0.828021 0.0473132 -0.369103 0.265564 0.296684 -0.362714 0.265686 0.298166
-0.356392 0.265885 0.298752 -0.349878 0.265457 0.299112 -0.343588 0.265845 0.297935
-0.33786 0.266251 0.296062 -0.266763 1.05178 0.028564 -0.0304199 0.839826 0.0509667
-0.577246 0.868002 0.161959 -0.055391 0.783807 -0.0727635 -0.305157 0.264452 0.285367
-0.298613 0.264422 0.284178 -0.292135 0.26434 0.282869 -0.285713 0.26406 0.280367
-0.27934 0.263828 0.278491 -0.27287 0.263684 0.277053 -0.266505 0.263489 0.275223
-0.398507 1.13577 -0.390697 -0.418083 1.04331 -0.12023 -0.2161 0.807571 0.123907
-0.517838 0.968484 0.220829 -0.418091 0.99623 0.0382935 -0.0137519 0.820346 0.187178
-0.576422 0.596952 0.0991407 0.134025 0.777937 0.203453 0.12912 0.781624 0.201646
-0.419157 1.01696 -0.0742375 -0.205106 0.804276 0.00514219 -0.210942 0.806396 0.0028256
-0.21661 0.808631 0.000767937 -0.222549 0.810519 -0.00149534 -0.228571 0.81217 -0.00370274
-0.538703 0.681559 0.0025449 -0.105951 0.732734 0.25007 0.271268 0.651937 0.0974271
0.253266 0.650768 0.174484 0.258414 0.651167 0.161734 0.254204 0.687301 0.110267
-0.337182 1.01408 0.0607944 -0.317854 1.01398 0.0592011 -0.311501 1.01384 0.0580935
-0.0673595 0.724334 0.265308 -0.240787 1.10889 -0.00370408 0.268356 0.651552 0.116612
0.287902 0.562276 0.142348 -0.193227 1.14978 -0.0378711 -0.151417 1.01324 -0.0218197
-0.145341 1.01385 -0.0271508 0.150698 0.78716 0.172677 -0.0500366 0.838303 0.0806858
0.262429 0.651404 0.148854 0.24561 0.696389 0.135256 -0.17664 0.740281 0.216826
-0.163909 0.740493 0.217825 -0.138203 0.741276 0.234844 -0.131668 0.741251 0.237831
-0.484906 0.743197 0.33092 -0.00336552 0.26611 0.30051 0.00313069 0.265975 0.299158
0.00950899 0.265895 0.297985 0.0159486 0.265733 0.296475 0.0224025 0.26567 0.295571
0.0289136 0.265494 0.294572 0.0352991 0.265422 0.293538 0.0416465 0.265404 0.292778
0.0480801 0.265268 0.292076 0.0545576 0.265156 0.291048 -0.32433 1.02327 0.0547174
-0.311394 1.02349 0.0534896 -0.298604 1.02334 0.0500661 -0.0609387 0.724391 0.266862
-0.0545526 0.724494 0.267051 -0.484924 0.845664 0.337147 0.173241 0.781026 0.144404
-0.391312 1.00096 0.140944 -0.112424 0.732799 0.248648 0.194631 0.763563 0.143263
0.244247 0.677108 -0.0115437 -0.529272 0.874823 -0.0109378 0.244174 0.650152 -0.0505226
-0.0481302 0.724398 0.266879 -0.234458 1.09012 0.00630231 -0.484894 0.7912 0.341224
0.227699 0.685637 -0.0446451 -0.45918 0.809376 0.33901 0.242436 0.668289 -0.0310907
0.266196 0.651533 0.1295 0.295021 0.553756 0.0653203 -0.455054 0.601807 -0.102311
-0.44851 0.601949 -0.104499 -0.474061 0.601132 -0.0942935 -0.461243 0.601574 -0.100073
-0.467723 0.601356 -0.0969223 -0.176237 1.15803 -0.0459691 -0.163334 1.15745 -0.0559136
0.0657686 0.835522 0.141346 -0.356095 1.01825 0.0510748 -0.383702 1.00408 0.0411746
[...]
CELL_DATA 69451
POINT_DATA 35947
SCALARS solution double 1
LOOKUP_TABLE default
0.993506 0.959824 1.60125 1.34249 1.0396 1.02027 0.947526 1.55649 1000 1.53163 1.54057 1.41489 1.23127 1.47135 1.31708 1.44177 1000 1.57445 1000 1.27058 1.23089 0.949614 1.2656 1.02841 1.39169 1.43138 1.50431 1.53742 0.976148 1.17982 1.60024 1.42164 1.35507 1.54975 0.497382 1.41791 0.930975 1.06027 1.09397 0.828742 1.1954 1.45558 1.56659 1.40014 1.55786 1.61531 1.3943 1.56515 1.02193 1.03308 1.4511 1.20377 1.01125 1.02976 1.52845 1.53616 1.52034 1.56164 1.54167 1.36655 0.986118 1.4097 1.41587 1.29277 1.58965 1.32775 1.29161 1.62411 1.62819 0.701215 0.906198 1.58025 1000 1.35785 1.2696 0.960835 1.18064 1.23264 1.2838 1.51242 1.52081 1.52911 0.971345 1.3496 1.53401 1.52623 1000 1.01034 1.30121 1.30969 1.53479 1.52904 1.85665 1.44395 1.3472 0.959233 1.35506 1.57173 1.20854 1000 1.57911 1.57895 0.752619 1.21079 1000 1.71776 1.42591 1.59715 1.57532 1.38056 1.43363 0.797596 1.48674 1.37846 1.44899 1.45268 1.4574 1000 1.00077 1.62189 1.27483 1.19708 1.6034 1.44804 1.18308 1.27961 0.955795 1.03719 1.08682 1.73993 1.37364 1.47951 1.49492 1.54175 1.60121 1.50511 1.56354 1.19728 1.1291 1.02743 1.27268 1.54655 1.40562 1.57247 1.53107 1.57068 1.36523 1.35007 1.19284 1.19711 1.1999 1.20011 1.58558 1.28645 1.58212 1.4297 1.27837 1000 1.48437 1.33046 1.05841 1.33228 1.33652 1.17052 1.17025 1.34806 1.42163 0.956678 1.1048 1.4152 1.44384 0.740711 0.965653 1.54415 1.17203 1.15817 1.14502 1000 0.953932 1.63493 1.33146 1.36017 1.53728 1.57281 1.51009 1000 1.35112 1.59199 1.59507 1.47316 1.68423 1.68473 1.09121 1.09842 1.60689 1.59869 1.60553 1.40965 1.40047 1.39322 1.38683 0.70757 1.72007 1.33449 1.61239 1.61867 1.62476 1000 1000 1.47918 1.56725 0.969784 1.68465 1000 1.53914 0.854295 1.1934 1.68363 1.6298 1.1767 1.04923 1.58004 1.36323 1.08089 1.17426 1.61379 1.46833 1.50002 1.76659 1.26227 1.63077 1.31211 0.532996 1.45955 1.39265 0.750716 0.945787 0.659044 0.678472 1.36461 1.3062 1.25306 1.22424 1.13912 1.01719 1.44271 1.3651 1.24542 1.28338 1.27362 1.37776 1.3949 1.06166 1000 1.18226 1.18378 1.18465 1.18138 1.17652 1.33912 1.09643 1.25442 0.781379 1.15816 1.15692 1.15647 1000 1000 1.15446 1.15434 1000 1.28054 1.23978 1.50661 1.243 1.43994 0.792676 1.56071 1.55238 1.18269 0.923454 0.918199 0.913919 0.909171 0.904794 0.721075 1.60088 1.35939 1.56076 1.52711 1.38288 1.29746 1.28226 1.27805 1.63657 1.39837 1.40932 1.51451 1.48481 1.30234 1000 1.4879 1.16037 1.49332 1.44711 1.50868 1.51264 1.55539 1.56376 1.46421 1.45596 1.46217 1.4683 1.47489 1.48107 1.48755 1.4939 1.50005 1.506 1.51202 1.30064 1.29281 1.28778 1.64232 1.64815 1.62173 1.43314 1.4225 1.5942 1.44595 1.06482 0.985493 0.976627 1.65411 1.40147 1.54152 0.974113 1.56857 1.01734 1.44284 1.32533 0.438854 0.43451 0.453741 0.443149 0.448763 1.51301 1.54041 1.35639 1.29252 1.2511 1.23094 1.25412 1.22921 1.08064 1.01263 1.58766 1.25432 1.20329 1.54803 1.11599 1.38697 1000 1.15849 1.1634 1.16526 1.16502 1.16449 1.16155 0.872097 0.999221 1.02723 1.14333 1.14092 1.1401 1.14036 1.13996 1000 1.13784 1.1385 1.13963 1.14162 1000 1.25423 1.24541 1.23597 1.22599 1.2153 1.20467 1.19339 0.927696 1.33951 1.31242 1.3245 1.33929 1.34884 1.356 1.36226 1.36676 1000 1.30487 1.34668 1.34044 1.47128 1.3031 1.16988 1.38476 1.38591 1.38791 1.38993 1.39279 1.39609 1.40009 1.4045 1.40945 1.41514 1.42078 1.42737 1.43423 1000 1.44868 1.45634 1.46231 1.469 1.47613 1.4823 1.48875 1.4949 1.50167 1.50837 1.5151 0.952535 1.67994 1.25341 1.6462 1.63512 1.62169 1.53618 1.35172 1.82866 1.41197 1.51502 1.54263 1.30939 1.53088 1.38323 1000 1.11677 1.21885 1.66018 1.66577 0.734802 1.28018 1.32548 1.01486 0.339022 0.336924 1.67135 1.33217 1.63279 1.45012 1.6767 1.3482 1.23991 1.79306 1.17588 1.15214 1.49803 1.0714 0.988825 1.57196 1.45934 1.22895 1.56308 1.56486 1.57289 1000 1.13768 1.14255 1.14539 1.14514 1.14344 1000 1.13693 1.13159 1.12758 1.12457 1.12213 1.12151 1.12247 1.12293 1.12089 1.11971 1.1231 1.12409 1.1272 1.12959 1.27129 0.988568 0.97851 0.967907 0.958746 0.949859 0.943327 0.934585 1.29263 1.30049 1.30558 1.31409 1.32883 1.34246 1.35057 1.35502 1000 1.36243 1000 1.63651 1.36753 1.3675 1.36835 1.36909 1.37123 1.37333 1.37612 1.37958 1.38375 1.38874 1.39437 1.40041 1.40709 1.4137 1.42143 1.42893 1.4368 1.44382 1.45045 1.45689 1.46304 1.46962 1.4754 1.48268 1.48906 1.49733 1.50494 1.51369 1.67874 1.55842 1.68743 1.64024 1.62807 1.55156 1.54324 1.56967 1000 1.53921 1.54946 1.55789 1.23272 1.58997 1.26977 1.37659 1000 0.983121 0.966561 1.42867 0.611354 0.424383 0.419336 0.414469 0.409052 0.402514 0.405591 0.941898 1.5135 1.37533 1.38053 1.20754 1.63041 1.33973 1.40673 1.23886 1.16519 1.19717 1.48143 1.00789 0.984109 1.2986 1.60211 1.1811 1.37938 1.37077 1.56198 1.11649 1.11944 1.11967 1000 1000 1.1168 1.11312 1.1062 1.10303 1.10094 1.09858 1.09735 1.10103 1.10233 1.10133 1.10172 1.10625 1.11001 1.11267 1.11499 1000 1.18862 1000 1.50283 1.47568 1.5804 0.983545 1.20874 1.27688 1.28734 1.29559 1.30243 1.31158 1.32376 1.33558 1.34087 1.34494 1.34778 1.34926 1.35007 1.35021 1.35034 1.35164 1.35366 1.35532 1.35854 1.36259 1.36774 1.37358 1.38041 1.38774 1.39458 1.4013 1.40795 1.41447 1.42094 1.42708 1.43342 1.43952 1.44563 1.4519 1.45818 1.46445 1.47074 1.47747 1.4866 1.49819 1.50864 1.49371 1.49935 1.49798 1.41992 1.682 1.07592 1.65403 1.65707 1.03536 1.63756 1.63089 1.56676 1000 1.40106 1.4764 1.27983 1.45501 1.09968 1.68729 1.30964 1.42078 1.40702 1.40434 1.20489 1.5265 1000 0.33934 0.335421 0.344711 1.31331 0.946518 1.30186 1.51536 1.50027 1.53888 1.84735 1.69265 1.29728 1.24368 1.41806 1.42628 1.25708 1.0679 0.979416 0.903527 1.59726 1.354 1.15914 1.13467 1.10929 1.45869 1.0873 1.08913 1000 1.08673 1.0863 1.08212 1.07704 1.07422 1.07204 1.0724 1.07408 1.07674 1.08126 1.0822 1.08542 1.09098 1.09495 1.09774 1.10174 1.10617 1.11171 0.403536 0.911097 0.904068 0.898473 0.893957 0.889578 0.884823 1.26784 1.28158 1.29052 1.29993 1.30914 1.31672 1.32194 1.32474 1.32754 1.32922 1.33009 1.33091 1.33239 1.33415 1.33591 1.34033 1.34623 1.35296 1.35952 1.36593 1.37267 1.37952 1.3871 1.39422 1.40168 1.40828 1.41484 1.42185 1.42858 1.43535 1.4425 1.44891 1.45563 1.46221 1.4688 1.47569 1.48321 1.49173 1.50041 1.51097 1.60945 1.60319 1.50128 1000 1.51925 1.66031 1.6156 1.62187 1.62831 1.61293 1.60707 1000 1.62181 1.62889 0.518694 1.2632 1.26079 1.38479 1.58502 1.55437 1.50024 1.42558 1.42545 1.42936 1.43395 1.43851 1.44461 1.44925 1.6078 1.3064 1.30299 1.45194 1.46829 1.36119 1.52232 1.75323 1.55034 1.55828 1000 1.18804 1.11912 1.41165 1.57295 1.60199 1.23617 1.22013 1.34628 1.33377 1.10531 1.16717 1.19466 1.04241 1.04795 1.05307 1.04991 1.04542 1.04287 1.04572 1.04355 1.04511 1.04908 1.05187 1.05529 1.06147 1.06658 1.07123 1.07582 1.08055 1.0854 1.09056 1.09582 1.10131 1.10716 1.28411 1.27499 1.26553 1.25602 1.24559 1.23421 1.22289 1.25842 1.27076 1.27975 1.2881 1.29238 1.29514 1.2982 1.30127 1.30183 1.30427 1.30656 1.31214 1.31729 1.32434 1.33227 1.34327 1.3509 1.35897 1.3676 1.37731 1.38424 1.39044 1.39706 1.40395 1.41127 1.41746 1.42481 1.43178 1.44014 1.44679 1.45315 1.45958 1.46583 1.47211 1.47846 1.48532 1.49261 1.50121 1.51152 1.55578 1.5245 1.20411 0.9644 1.69738 1.54659 1.31726 1.25374 1000 1.53558 1.60111 1.59492 1.58829 1.58153 1.63428 1.63687 1.62726 1.61643 1.60959 1.24411 1.23503 1.44605 1.44443 1.44688 1.45192 1.45663 1.46222 1.46671 1000 1.47412 1.39061 1.70101 1.61035 1.18063 1.60586 1.48462 1.70295 1.3826 1.41142 1.57857 1.54659 1.06233 1.00361 0.974684 1.24317 1.21124 1.20141 1000 1.11562 1.17637 1.20281 1.21862 0.984697 1.70412 1.00251 1.01217 1.00631 1.00275 1.01109 1.01856 1.02666 1.033 1.03928 1.04645 1.05331 1.05924 1.06464 1.07016 1.07587 1.08171 1.08778 1.09484 1.10149 1000 1.59569 1.20212 1.57631 1.16434 1.32682 1.19713 1000 1.23624 1.24674 1.25163 1.25915 1.26051 1.2668 1.2715 1.27902 1.28591 1.29342 1.30257 1.31429 1.32857 1.34408 1.35624 1.36373 1.3704 1.37798 1.38565 1.39322 1.39984 1.40767 1.4166 1.42532 1.43407 1.44158 1.44755 1.4506 1.45613 1.46248 1.47 1.47544 1.48039 1.48588 1.49188 1.49821 1.50608 1.07139 0.940709 1.27887 0.406635 1.80225 1.59934 0.997155 1.06979 1.04028 1.16936 1.3828 1.5408 1.14045 1.3152 0.979593 1.57351 1000 1.16494 1.35705 1.23198 0.965053 1000 1000 1.46276 1.46319 1.46696 1.47199 1.47731 1.48307 1.48745 1.49149 1000 1.46485 0.885863 1000 1.36595 1.54403 1.58881 1.35211 1.53735 1.79717 0.859627 0.995353 1.55162 1.05564 1.48494 1000 1.06708 1.12154 1.0952 1.13936 1.35248 1.31667 1.51142 1.29016 1.28985 1000 0.981612 0.987807 0.999579 1.0098 1.0186 1.02717 1.03581 1.04343 1.05045 1.05654 1.06281 1.06902 1.07527 1.08194 1.09041 1.09823 1.10533 1.11186 1000 1.41926 1.42672 1.43415 1.44146 1.44874 1.19858 1.2091 1.21339 1.2224 1.23368 1.24745 1.26113 1.27552 1.29169 1.30565 1.31794 1.32708 1.33848 1.35203 1.36462 1.37273 1.37917 1.3868 1.39567 1.4031 1.41104 1.42233 1.43032 1.43903 1.44807 1.45584 1.46129 1.46446 1.46809 1.47438 1.48144 1.48685 1.49139 1.49612 1.5014 1.5066 1.51198 1.59249 1.58563 1.11303 1.43123 1.44765 1.59584 1.68859 1.5628 1.59447 1.39127 0.913261 1.62246 1.62893 1.62261 1.61605 1.05071 0.923808 1.70565 1.55099 1.39619 1.30076 1.16441 1.36201 1.48503 1.48048 1.48276 1.48638 1.49107 1.49621 1.50069 1.50563 1.50918 1.51207 1.47639 1.39191 1.36741 1.40465 1.26461 1.57454 1.4977 1.39355 1000 1.08444 0.863929 0.989769 1.40141 1.12589 1.46759 1.36204 1000 1.37332 1.36568 1.49705 1.35721 1.19318 1.51128 0.9687 0.985445 0.999617 1.00903 1.01933 1.02952 1.03777 1.04528 1.05176 1.05824 1.06474 1.07164 1.07937 1.08719 1.09626 1.10401 1.11275 1.12137 1000 1.22185 1.21126 1.41085 1.41561 1.42179 1.18491 1.19945 1.21503 1.23302 1.25204 1.27285 1.29385 1.31184 1.329 1.34078 1.34736 1.35268 1.36103 1.37426 1.38321 1.38951 1.39779 1.40658 1.41386 1.4228 1.43297 1.44078 1.44905 1.45781 1.46553 1.47103 1.47732 1.48114 1.48573 1.49125 1.4964 1.50164 1.50804 1.5135 1.51775 1.52256 1.52837 1.50447 0.996997 1.61531 1.80571 1000 1.68904 1.68917 1.44364 1.58986 1.5863 0.942876 1.56268 1.56022 1000 1.60971 1.60338 1.59567 1.58777 1.13639 1.55479 1.43064 1.06147 1.31527 1000 1.49785 1.50078 1.5044 1.50889 1.51359 1.51832 1.52249 1.52592 1.52899 1.50817 1.5554 1000 1.62457 1000 1000 1.77728 1.66586 1000 1.58105 1.22645 1.25058 1.43552 1.18566 1.47565 1.45896 1.25541 1.48396 1.5101 1.5704 1.5364 1.25905 1.3733 0.974451 0.990917 1.00397 1000 1.02588 1.03613 1.04333 1.05016 1.05664 1.06331 1.07092 1.07749 1.08621 1.09467 1.1037 1.1135 1.12246 1.13032 1.13739 1.20221 1.2337 1.19803 0.907524 1.5141 1.2042 1.22681 1.24914 1.26909 1.28917 1.30841 1.3256 1.34369 1.35561 1.36321 1.36664 1.3727 1.38383 1.3938 1.40118 1.40939 1.41645 1.42344 1.43233 1.44095 1.44795 1.45505 1.4634 1.47119 1.47716 1.48492 1.4936 1.49736 1.50201 1.50677 1.51207 1.51815 1.5245 1.52909 1.53441 1000 1.55521 1.55756 1.55978 1.56036 1.41162 1000 1.68781 1.43945 1.44793 1.43903 1.58136 1.5742 1.47217 1.41983 1.20577 1.72008 1000 1.27116 1.11228 1.58356 1.46961 0.806854 1.68467 1.60945 1000 1.5149 1.5181 1.52201 1.52625 1.53025 1.53469 1.53873 1.54242 1.54419 1.68145 1.41677 1.42614 0.97263 1.22554 1.61338 1.60443 0.777132 1.33426 1.43863 1.24922 1.06013 1.6024 1.21109 1.53357 1.569 1.49288 1.30786 1.30544 1.61504 1.24809 1.33729 1.26305 1.05109 1.50057 0.957086 1.02644 1.03672 1.04463 1.0515 1.05795 1.06444 1.07117 1.07871 1.08668 1.09659 1.10468 1.11472 1.12336 1.13138 1.14074 1.1489 1.15513 1.29913 1.30809 1.17616 1.53523 1.41357 1.60179 0.522923 1.00334 1.09835 1.13762 1.23272 1.36786 1.37516 1.37974 1.38493 1.39487 1.40595 1.41447 1.42186 1.42779 1.43478 1.44277 1.44888 1.45466 1.46062 1.46772 1.47539 1.48191 1.48854 1.49783 1.50619 1.51206 1.51729 1.52238 1.52781 1.53312 1.53857 1.54368 1.54883 1.56195 1.5584 1.55853 1.00103 1.26934 1000 1.4913 1.68614 1.4818 1.55187 1.2165 1.30086 1.70614 1.70576 1.50567 1.46099 1.34553 1.27216 1.44458 1.17102 1.2965 1.01689 1.07968 1.50913 1.58305 1000 1.5319 1.53507 1.5388 1.5429 1.54679 1.55092 1.55497 1.55855 1.56049 1.6054 0.37952 0.723 1.27491 1.50971 1.40288 1.46588 1.01114 1.63004 1.56128 1.55606 1.00321 1.21053 1.07977 1.42509 1.50824 1.29923 1.31253 1.33559 0.929955 1.14791 1.04114 1.41983 0.977355 1.29299 1.02906 1.0388 1.0476 1.05442 1.06082 1.06717 1.0738 1.08094 1.08841 1.09779 1.10763 1.11642 1.12511 1.13403 1.14379 1.15101 1.15728 1.16914 1.32232 1.42306 1.4231 1.13774 0.534186 1.01515 1.0884 1.14699 1.2246 1.28995 1.37978 1.38613 1.39144 1000 1.43492 1.42292 1.43042 1.43744 1.44834 1.45342 1.45734 1.4602 1.46466 1.46985 1.47527 1.48134 1.48779 1.494 1.50091 1.509 1.51582 1.52233 1.52888 1.53475 1.54081 1.54644 1.55237 1.55805 1.50362 1000 1.45106 1.46464 1.79798 1.19904 1.48648 1.48084 1.50457 1.5659 1.46329 1.43347 1.20095 1.21101 1.47227 1.29368 1.53476 1.13299 1.28992 1.80754 0.970725 1.48732 1.59709 1.25021 1.23119 1.57635 1.54747 1.54889 1.55203 1.55564 1.55948 1.56328 1.56722 1.57123 1.5747 1.57581 1.61112 1.60471 1.59767 0.590204 1.37875 0.966499 1.39485 1.7023 1.34262 1.69589 1000 1.58748 1.20193 1000 1.56909 1.11999 1000 1.44825 1.44221 1.60122 1.57342 1.03002 1.46101 0.989108 1.12026 1.4346 1.04267 1.0518 1.05862 1.06518 1.07133 1.0778 1.08468 1.09213 1.10026 1.10951 1.11822 1.12704 1.13619 1.14458 1.15232 1.15889 1.17004 0.91323 0.905291 1.50643 0.544605 1.02621 1.07791 1.1564 1.2165 1.29812 1000 1.3925 1.39867 1.40404 1000 1.43209 1.43931 1.44782 1.46016 1.46653 1.46933 1.47216 1.47586 1.47707 1.48074 1.48625 1.4929 1.50137 1.50648 1.51161 1.5172 1.52286 1.52865 1.53454 1.54131 1.54806 1000 1.56285 1.56923 1.53182 1.52404 1.51609 1.50476 1.4953 1000 1.47576 1.46821 1000 1.43394 1.56862 1.57229 1.57462 1.61463 1.48289 0.880489 1.15552 1.49571 1.18975 1.27111 1.03291 1.16007 1.15023 1.01588 1.31303 1.42779 1.39061 1.56455 1.56619 1.5691 1.57248 1.57607 1.57979 1.58363 1.58747 1.59044 1.59046 1.35732 1.21059 1.58925 1.58048 1.51588 0.832136 1.39983 1000 1.32209 1.58423 1000 1.51914 1.32535 1.08511 1.11716 1.4075 1.43968 1.44082 1.55612 1.57393 1.02035 1.2009 0.967203 1.51939 1.4658 1.04614 1.05497 1.06177 1.06841 1.07498 1.08119 1.08788 1.0958 1.10337 1.11132 1.12044 1.12918 1.13814 1.14697 1.15622 1.16253 1.17317 1.19055 0.992399 0.555053 1.0366 1.068 1.16513 1.20823 1.30625 1.38506 1000 1.40903 1.4165 1000 1000 1.4485 1.45617 1.4672 1.47551 1.47982 1.48513 1.48948 1.49215 1.49324 1.49582 1.50847 1.51841 1.52375 1.52704 1.53086 1.5352 1.53803 1.54125 1.54465 1000 1.11928 1.53496 1.60879 1.07016 1000 1000 1.42931 1.44037 1.44964 1.43464 1.4271 1.45931 1.45248 1000 1.424 1.41268 1.40109 1000 1.60505 1.38359 1.37559 1.37228 1.26814 1.51728 1.40682 0.78022 1.1106 1.27614 0.9352 0.799938 1.3109 1000 1.58296 1.58412 1.58632 1.58943 1.59283 1.59639 1.6001 1.60435 1.60513 1.60446 1.08515 1.48045 1.75944 1.36952 1000 1.33672 1.34069 0.960594 1.29891 1.31356 1.12987 1.70116 1.70126 0.728002 1.70199 1.70346 1.36 1.52637 1.28075 1.43748 1.56932 1.27246 1.00942 1.41414 0.946237 1.44246 1.40443 1.04955 1.05866 1.06661 1.07344 1.08061 1.08657 1.09273 1.09938 1.10679 1.11609 1.12633 1.13425 1.14319 1.1512 1.15894 1.16563 1.17485 1.19461 1.04703 1.05753 1.1083 1.18272 1.26566 1.31433 1.37748 1.42187 1.37961 1.42376 1.43411 1000 1.45313 1.4621 1.46965 1.47912 1.48703 1.4926 1.49789 1.50226 1.50602 1.50928 1.51229 1.5208 1.52956 1.53535 1.54001 1.54454 1.54933 1.55245 1.55516 1.55828 1.56145 1000 1.6936 1.54246 1.60657 1.60365 1.59928 1.59516 1.59212 1.58906 1.58483 1.57931 0.769875 0.314572 1.11591 1.5379 1.54521 1.54825 1.55394 1.09324 1.08174 0.685869 1.08817 1.27607 1.4231 1.5876 1.48456 0.922785 1.04419 0.387369 1.53566 1.55254 1.56952 1000 1.60191 1.60214 1.60444 1.60677 1.60995 1.61327 1.61733 1.62013 1.62093 1.61965 1.61774 1.03147 1.43834 1.4228 0.994242 1.32126 0.433167 1.26703 1.68434 1.14366 1.70509 1.70408 1.34859 1.33613 1.08098 1.13639 0.75211 0.77381 1.70241 1.69995 1000 0.835434 1.50161 1.24512 1.56403 0.998633 1000 0.936826 1.62699 1.56585 1.38066 1.05443 1.06521 1.07311 1.08031 1.08645 1.09246 1.09846 1.10491 1.11251 1.12135 1.13161 1.14143 1.14879 1.15566 1.16291 1.16983 1.17852 1.19639 1.12819 1.11821 1.17389 1.25731 1.32239 1.36989 1.42913 1.48688 1.40416 1.43528 1.44497 1000 1.4226 1.47248 1.4805 1.48753 1.49497 1.50171 1.50752 1.51244 1.51738 1.52193 1.52728 1.53303 1.53956 1.5448 1.54983 1.55502 1.55975 1.56455 1.56857 1.57192 1.57502 1.57853 1.62842 0.853578 1.54863 1.55587 1.56164 1.56616 1.57028 1.39709 1.62977 1.60736 1.52695 1.60734 1.3901 1.4143 1000 1.07961 1.06327 1.55583 1.56003 1.56565 1.57008 1.57562 1.58286 1.5837 1.57981 0.979462 1.45684 1.44483 1.4664 1.47253 1.14577 1.12932 1.61813 1.62264 1.62181 1.62233 1.62481 1.62765 1.63122 1.63474 1.63647 1.63455 1.6292 1.62196 1.45595 1.69755 1.43959 1.43093 1.02471 1.34737 1.69652 1.48205 1000 1.69333 1.05467 0.998646 0.96953 1.19285 1.61537 1.32803 1.14681 1.35142 1.21057 1000 0.850994 0.856889 0.868346 0.878252 0.895136 0.918431 0.938568 1.19749 0.928464 1.43534 1.48893 1.38856 1.2897 1.06005 1.07038 1.07808 1.08491 1.09141 1.0975 1.10365 1.11016 1.11721 1.12643 1.13794 1.14685 1.15524 1.16262 1.16974 1.17583 1.18485 1.20365 1.19965 1.19117 1.27371 1.33872 1.36215 1.44215 1.50323 1.13182 1.29543 1.44466 1.45419 1.45949 1.46831 1.47779 1.48715 1.49433 1.50119 1.50794 1.51437 1.52024 1.52568 1.53141 1.53758 1.54333 1.54858 1.55388 1.55926 1.5644 1.5696 1.5746 1.58029 1.58562 1.58941 1.59219 1.59577 1.6287 1.14478 1.34268 0.630185 1.13173 1.59854 1000 1.77912 1.22706 1.51736 1.60693 1.60757 1.60589 1.60551 1.60936 1.61189 1.57403 1.66612 1.03051 1.4095 1.40368 1.57879 1.58403 1.6135 1.26895 1.46683 1.45373 1000 0.723257 0.781549 1.03608 1.63351 1.63961 1.64386 1.64161 1.6423 1.64368 1.6468 1.65022 1.64802 1.64236 1.63629 1.62955 1.53197 1.19758 1.35366 1.3049 1.02859 0.946525 0.651734 1.37454 1.50759 1.28858 1.23472 1.1788 1.10976 1.04627 0.928739 0.923606 1.42253 1.351 1.33884 1.09325 1.15667 0.499812 0.496815 0.70929 0.360457 0.325898 1000 0.934786 0.948345 0.959888 0.972693 1.11032 1.31771 1.39634 1.38791 1.25619 1.0648 1.07399 1.08174 1.08922 1.0958 1.10191 1.1081 1.1146 1.12277 1.13239 1.14295 1.15204 1.16116 1.16871 1.17588 1.1818 1.19173 1000 1.24142 1.24908 1.33034 1.35435 1.44625 1.15041 1.13085 1000 1.58997 1.45157 1.45957 1.4655 1.47192 1.48132 1.4909 1.50008 1.50722 1.51385 1.52013 1.52678 1.53286 1.53888 1.54526 1.55127 1.55676 1.56248 1.56856 1.57407 1.57941 1.58453 1.59081 1.59694 1.60234 1.60652 1.6099 1000 1.62856 1.62712 1.62554 1.62395 1.62338 0.915263 1.47796 1.63134 1.22699 1.51 1.50117 1.49166 1.46836 1.48074 1.61334 1.61363 0.924284 1000 1.60983 1000 1.32937 1.37017 1.62612 1.3538 1.47492 1000 1.1039 0.721351 1.16852 1.37366 1.6484 1.65654 1.65628 1.6546 1.65785 1.66033 1.66224 1.65857 1.65245 1.64622 1.63974 1000 1.41695 1.34432 1.63827 1.54522 1.11035 1.1612 1.04096 0.980782 1.37746 1.38916 1.33142 1.27951 1.2253 1.16902 1.09986 1.03938 0.943287 0.964721 1.38716 1.19151 1.1697 1.14693 0.371094 0.363056 0.687679 0.357817 0.321827 1.40339 1.19738 0.309518 0.276905 0.982115 0.995641 1.0859 1.40411 1.47056 1.04638 1000 1.06938 1.07846 1.087 1.09451 1.10097 1.10707 1.11333 1.12029 1.12793 1.13692 1.14554 1.15624 1.1653 1.17333 1.18018 1.18642 1.19497 1.21161 1.28187 1.34656 1.39251 1.45426 1.46701 1.20638 1.5768 1.5052 1.3314 1.45769 1.46666 1.47239 1.47866 1.48555 1.49553 1.50465 1.51251 1.51952 1.52638 1.53279 1.53947 1.54563 1.55176 1.55793 1.5637 1.56972 1.57616 1.58275 1.58928 1.59442 1.60008 1.60614 1.61295 1.61778 1.62252 1.62719 1000 1000 1000 1.68882 1.59231 1.22391 1.03958 1000 1.63082 1.43337 1.42302 1.42702 1.47076 1.45933 1.45187 1.44489 1.43654 1.44006 1.60899 1.19771 0.727745 1.18333 1.22295 1.53931 1.4827 1.38623 1.36979 0.9384 0.811709 1.44115 1.53475 1.39878 1000 1.63473 1.63649 1.64065 1.64403 1.64739 1.6478 1.64521 1.63987 1.63271 1.6254 1.61613 1.36033 1.11488 0.935499 1.5517 1.47265 1.27626 1.19628 1.42198 1.38095 1.32297 1.2711 1.21595 1.1588 1.09014 0.933844 0.938551 1.55551 1.23766 1.48461 1.45383 0.922384 0.462179 0.354291 0.346626 0.318402 0.795306 0.549451 0.569193